[Molden Format]
[Atoms] Angs
 C       1    6        0.0000000000        0.0000000000        0.0000000000
 C       2    4        1.5000000000        0.0000000000        0.0000000000
[GTO]
    1    0
 s        5    1.00
  16371.0740000000      0.0002264183
   2426.9925000000      0.0017844680
    544.5441800000      0.0094901567
    150.8048700000      0.0396605150
     47.7081430000      0.1313402600
 s        1    1.00
     16.4572410000      1.0000000000
 s        1    1.00
      6.0845578000      1.0000000000
 s        1    1.00
      2.3824631000      1.0000000000
 s        1    1.00
      0.6619866000      1.0000000000
 s        1    1.00
      0.2469899700      1.0000000000
 s        1    1.00
      0.0949873000      1.0000000000
 p        2    1.00
     40.7904230000      0.0040969752
      9.5034633000      0.0275847660
 p        1    1.00
      2.9408357000      1.0000000000
 p        1    1.00
      1.0751115000      1.0000000000
 p        1    1.00
      0.4267024000      1.0000000000
 p        1    1.00
      0.1748192600      1.0000000000
 p        1    1.00
      0.0711305400      1.0000000000
 d        1    1.00
      1.4000000000      1.0000000000
 d        1    1.00
      0.3500000000      1.0000000000

    2    0
 s        3    1.00
     30.1789000000      0.0658240000
      5.1896000000      0.2060210000
      1.0680000000     -0.0493600000
 s        1    1.00
      0.4002000000      1.0000000000
 s        1    1.00
      0.1351000000      1.0000000000
 p        2    1.00
      3.5409700000      0.1351450000
      0.8080800000      0.4301870000
 p        1    1.00
      0.2480000000      1.0000000000
 p        1    1.00
      0.0916000000      1.0000000000
 d        1    1.00
      0.8000000000      1.0000000000

[MO]
Sym=     1A   
Ene=         -8.71342
Spin= Alpha
Occup=  1.00000
    1         0.17120
    2         0.31586
    3         0.43219
    4         0.21397
    5         0.01665
    6        -0.00556
    7         0.00123
    8         0.00024
    9         0.00000
   10         0.00000
   11         0.00041
   12         0.00000
   13         0.00000
   14         0.00005
   15         0.00000
   16        -0.00000
   17         0.00024
   18        -0.00000
   19         0.00000
   20        -0.00077
   21         0.00000
   22        -0.00000
   23         0.00026
   24        -0.00000
   25         0.00000
   26        -0.00003
   27         0.00001
   28         0.00001
   29        -0.00000
   30        -0.00000
   31        -0.00000
   32        -0.00013
   33         0.00006
   34         0.00006
   35         0.00000
   36         0.00000
   37         0.00000
   38        -0.00005
   39         0.00030
   40         0.00028
   41        -0.00000
   42         0.00000
   43        -0.00000
   44        -0.00036
   45        -0.00000
   46        -0.00000
   47        -0.00020
   48        -0.00000
   49        -0.00000
   50        -0.00007
   51         0.00003
   52         0.00003
   53        -0.00000
   54         0.00000
   55        -0.00000
Sym=     2A   
Ene=          0.68017
Spin= Alpha
Occup=  1.00000
    1        -0.02727
    2        -0.05910
    3        -0.10080
    4        -0.08569
    5         0.26431
    6         0.30318
    7         0.15367
    8         0.00872
    9         0.00000
   10         0.00000
   11         0.02598
   12         0.00000
   13         0.00000
   14         0.06734
   15         0.00000
   16         0.00000
   17         0.08288
   18         0.00000
   19         0.00000
   20         0.04230
   21        -0.00000
   22        -0.00000
   23         0.01400
   24         0.00000
   25         0.00000
   26         0.00749
   27        -0.00375
   28        -0.00375
   29         0.00000
   30         0.00000
   31        -0.00000
   32         0.01824
   33        -0.00912
   34        -0.00912
   35         0.00000
   36        -0.00000
   37         0.00000
   38        -0.17129
   39         0.36147
   40         0.13822
   41        -0.12039
   42         0.00000
   43         0.00000
   44        -0.06782
   45         0.00000
   46         0.00000
   47         0.05092
   48        -0.00000
   49        -0.00000
   50         0.01093
   51        -0.00547
   52        -0.00547
   53        -0.00000
   54        -0.00000
   55        -0.00000
Sym=     3A   
Ene=          0.91600
Spin= Alpha
Occup=  1.00000
    1         0.02422
    2         0.05226
    3         0.09190
    4         0.07401
    5        -0.22708
    6        -0.39578
    7         0.17386
    8         0.00726
    9        -0.00000
   10         0.00000
   11         0.02583
   12        -0.00000
   13         0.00000
   14         0.04356
   15        -0.00000
   16        -0.00000
   17         0.11490
   18        -0.00000
   19         0.00000
   20        -0.05675
   21         0.00000
   22         0.00000
   23         0.32817
   24         0.00000
   25         0.00000
   26         0.00231
   27        -0.00116
   28        -0.00116
   29         0.00000
   30         0.00000
   31         0.00000
   32        -0.00843
   33         0.00421
   34         0.00421
   35        -0.00000
   36        -0.00000
   37        -0.00000
   38        -0.15429
   39         0.40547
   40         0.04814
   41         0.13039
   42         0.00000
   43         0.00000
   44        -0.01825
   45         0.00000
   46         0.00000
   47         0.38266
   48         0.00000
   49        -0.00000
   50        -0.01138
   51         0.00569
   52         0.00569
   53        -0.00000
   54        -0.00000
   55        -0.00000
Sym=     4A   
Ene=          1.02571
Spin= Alpha
Occup=  1.00000
    1         0.00000
    2         0.00000
    3         0.00000
    4         0.00000
    5        -0.00000
    6         0.00000
    7        -0.00000
    8         0.00000
    9         0.01277
   10        -0.00000
   11         0.00000
   12         0.07098
   13        -0.00000
   14         0.00000
   15         0.02332
   16        -0.00000
   17         0.00000
   18         0.47828
   19        -0.00000
   20        -0.00000
   21        -0.61060
   22         0.00000
   23         0.00000
   24         1.13893
   25        -0.00000
   26         0.00000
   27        -0.00000
   28        -0.00000
   29         0.00426
   30        -0.00000
   31         0.00000
   32        -0.00000
   33         0.00000
   34         0.00000
   35         0.01479
   36         0.00000
   37        -0.00000
   38        -0.00000
   39        -0.00000
   40         0.00000
   41        -0.00000
   42         0.19554
   43        -0.00000
   44        -0.00000
   45         0.20731
   46        -0.00000
   47        -0.00000
   48        -0.09643
   49        -0.00000
   50         0.00000
   51        -0.00000
   52        -0.00000
   53        -0.01730
   54         0.00000
   55         0.00000
Sym=     5A   
Ene=          1.02571
Spin= Alpha
Occup=  1.00000
    1         0.00000
    2         0.00000
    3         0.00000
    4         0.00000
    5        -0.00000
    6         0.00000
    7        -0.00000
    8         0.00000
    9        -0.00000
   10         0.01277
   11         0.00000
   12         0.00000
   13         0.07098
   14         0.00000
   15         0.00000
   16         0.02332
   17         0.00000
   18         0.00000
   19         0.47828
   20        -0.00000
   21        -0.00000
   22        -0.61060
   23         0.00000
   24         0.00000
   25         1.13893
   26         0.00000
   27        -0.00000
   28        -0.00000
   29        -0.00000
   30         0.00426
   31         0.00000
   32        -0.00000
   33         0.00000
   34        -0.00000
   35         0.00000
   36         0.01479
   37        -0.00000
   38        -0.00000
   39        -0.00000
   40         0.00000
   41        -0.00000
   42         0.00000
   43         0.19554
   44        -0.00000
   45         0.00000
   46         0.20731
   47        -0.00000
   48        -0.00000
   49        -0.09643
   50         0.00000
   51        -0.00000
   52        -0.00000
   53        -0.00000
   54        -0.01730
   55         0.00000
Sym=     6A   
Ene=          1.02640
Spin= Alpha
Occup=  1.00000
    1        -0.00756
    2        -0.01803
    3        -0.02375
    4        -0.03768
    5         0.12728
    6        -0.07000
    7         1.44531
    8        -0.01911
    9         0.00000
   10         0.00000
   11        -0.07262
   12         0.00000
   13         0.00000
   14        -0.11252
   15         0.00000
   16         0.00000
   17        -0.37498
   18         0.00000
   19         0.00000
   20         0.30454
   21        -0.00000
   22        -0.00000
   23        -0.07950
   24         0.00000
   25         0.00000
   26        -0.01054
   27         0.00527
   28         0.00527
   29         0.00000
   30         0.00000
   31        -0.00000
   32         0.00427
   33        -0.00214
   34        -0.00214
   35         0.00000
   36         0.00000
   37         0.00000
   38         0.00338
   39         0.04402
   40        -0.67547
   41         0.26289
   42         0.00000
   43         0.00000
   44         0.05961
   45         0.00000
   46         0.00000
   47         1.03781
   48        -0.00000
   49        -0.00000
   50        -0.00545
   51         0.00273
   52         0.00273
   53        -0.00000
   54        -0.00000
   55        -0.00000
Sym=     7A   
Ene=          1.10584
Spin= Alpha
Occup=  1.00000
    1         0.00000
    2         0.00000
    3         0.00000
    4         0.00000
    5        -0.00000
    6        -0.00000
    7        -0.00000
    8         0.00000
    9        -0.01228
   10        -0.00000
   11         0.00000
   12        -0.00551
   13        -0.00000
   14         0.00000
   15        -0.17369
   16        -0.00000
   17        -0.00000
   18         0.24067
   19        -0.00000
   20         0.00000
   21        -0.94278
   22        -0.00000
   23        -0.00000
   24         1.64589
   25         0.00000
   26         0.00000
   27        -0.00000
   28         0.00000
   29        -0.01097
   30         0.00000
   31        -0.00000
   32         0.00000
   33        -0.00000
   34        -0.00000
   35        -0.00425
   36        -0.00000
   37         0.00000
   38        -0.00000
   39        -0.00000
   40         0.00000
   41        -0.00000
   42        -0.29410
   43        -0.00000
   44         0.00000
   45        -0.00958
   46        -0.00000
   47        -0.00000
   48        -1.00272
   49        -0.00000
   50         0.00000
   51        -0.00000
   52         0.00000
   53         0.00528
   54         0.00000
   55        -0.00000
Sym=     8A   
Ene=          1.10584
Spin= Alpha
Occup=  1.00000
    1         0.00000
    2         0.00000
    3         0.00000
    4         0.00000
    5        -0.00000
    6        -0.00000
    7        -0.00000
    8         0.00000
    9         0.00000
   10        -0.01228
   11         0.00000
   12        -0.00000
   13        -0.00551
   14         0.00000
   15         0.00000
   16        -0.17369
   17        -0.00000
   18        -0.00000
   19         0.24067
   20         0.00000
   21         0.00000
   22        -0.94278
   23        -0.00000
   24        -0.00000
   25         1.64589
   26         0.00000
   27         0.00000
   28        -0.00000
   29         0.00000
   30        -0.01097
   31        -0.00000
   32        -0.00000
   33        -0.00000
   34         0.00000
   35        -0.00000
   36        -0.00425
   37         0.00000
   38        -0.00000
   39        -0.00000
   40         0.00000
   41        -0.00000
   42         0.00000
   43        -0.29410
   44         0.00000
   45        -0.00000
   46        -0.00958
   47        -0.00000
   48         0.00000
   49        -1.00272
   50         0.00000
   51        -0.00000
   52        -0.00000
   53        -0.00000
   54         0.00528
   55        -0.00000
Sym=     9A   
Ene=          1.11640
Spin= Alpha
Occup=  0.00000
    1        -0.00979
    2        -0.02075
    3        -0.03890
    4        -0.02685
    5         0.09060
    6         0.16563
    7         1.07860
    8        -0.00367
    9         0.00000
   10        -0.00000
   11         0.02110
   12         0.00000
   13         0.00000
   14        -0.10826
   15        -0.00000
   16        -0.00000
   17         0.34257
   18         0.00000
   19         0.00000
   20        -0.84126
   21        -0.00000
   22        -0.00000
   23         1.94191
   24         0.00000
   25         0.00000
   26        -0.00352
   27         0.00176
   28         0.00176
   29        -0.00000
   30        -0.00000
   31        -0.00000
   32        -0.00566
   33         0.00283
   34         0.00283
   35        -0.00000
   36        -0.00000
   37        -0.00000
   38         0.07983
   39         0.11462
   40        -1.73801
   41        -0.04903
   42        -0.00000
   43        -0.00000
   44        -0.25527
   45        -0.00000
   46        -0.00000
   47         0.64352
   48        -0.00000
   49        -0.00000
   50        -0.01269
   51         0.00634
   52         0.00634
   53         0.00000
   54        -0.00000
   55         0.00000
Sym=    10A   
Ene=          1.19018
Spin= Alpha
Occup=  0.00000
    1         0.00410
    2         0.00748
    3         0.02026
    4        -0.00155
    5         0.03255
    6        -0.36128
    7         2.30135
    8         0.02067
    9         0.00000
   10         0.00000
   11         0.02498
   12         0.00000
   13         0.00000
   14         0.26370
   15         0.00000
   16         0.00000
   17        -0.27172
   18        -0.00000
   19        -0.00000
   20         1.44441
   21         0.00000
   22         0.00000
   23        -0.61916
   24        -0.00000
   25        -0.00000
   26        -0.00186
   27         0.00093
   28         0.00093
   29         0.00000
   30         0.00000
   31        -0.00000
   32         0.02945
   33        -0.01472
   34        -0.01472
   35         0.00000
   36        -0.00000
   37         0.00000
   38         0.07022
   39        -0.10180
   40        -1.65637
   41        -0.19368
   42         0.00000
   43         0.00000
   44        -0.37673
   45         0.00000
   46         0.00000
   47         1.87080
   48         0.00000
   49        -0.00000
   50         0.03571
   51        -0.01786
   52        -0.01786
   53        -0.00000
   54        -0.00000
   55         0.00000
Sym=    11A   
Ene=          1.20382
Spin= Alpha
Occup=  0.00000
    1        -0.00000
    2        -0.00000
    3        -0.00000
    4        -0.00000
    5         0.00000
    6         0.00000
    7        -0.00000
    8        -0.00000
    9         0.02971
   10         0.00000
   11        -0.00000
   12         0.06885
   13         0.00000
   14        -0.00000
   15         0.29144
   16         0.00000
   17        -0.00000
   18         0.04235
   19         0.00000
   20        -0.00000
   21         0.91470
   22         0.00000
   23        -0.00000
   24        -0.31288
   25        -0.00000
   26        -0.00000
   27         0.00000
   28        -0.00000
   29        -0.00325
   30        -0.00000
   31         0.00000
   32         0.00000
   33        -0.00000
   34         0.00000
   35         0.01168
   36         0.00000
   37        -0.00000
   38        -0.00000
   39        -0.00000
   40         0.00000
   41         0.00000
   42        -0.11016
   43        -0.00000
   44         0.00000
   45         0.14820
   46         0.00000
   47        -0.00000
   48        -0.83590
   49        -0.00000
   50         0.00000
   51        -0.00000
   52        -0.00000
   53        -0.01909
   54        -0.00000
   55        -0.00000
Sym=    12A   
Ene=          1.20382
Spin= Alpha
Occup=  0.00000
    1        -0.00000
    2        -0.00000
    3        -0.00000
    4        -0.00000
    5         0.00000
    6         0.00000
    7        -0.00000
    8        -0.00000
    9        -0.00000
   10         0.02971
   11        -0.00000
   12        -0.00000
   13         0.06885
   14        -0.00000
   15        -0.00000
   16         0.29144
   17        -0.00000
   18        -0.00000
   19         0.04235
   20        -0.00000
   21        -0.00000
   22         0.91470
   23        -0.00000
   24         0.00000
   25        -0.31288
   26        -0.00000
   27        -0.00000
   28         0.00000
   29        -0.00000
   30        -0.00325
   31         0.00000
   32         0.00000
   33         0.00000
   34        -0.00000
   35        -0.00000
   36         0.01168
   37        -0.00000
   38        -0.00000
   39        -0.00000
   40         0.00000
   41         0.00000
   42         0.00000
   43        -0.11016
   44         0.00000
   45        -0.00000
   46         0.14820
   47        -0.00000
   48         0.00000
   49        -0.83590
   50         0.00000
   51        -0.00000
   52        -0.00000
   53         0.00000
   54        -0.01909
   55        -0.00000
Sym=    13A   
Ene=          1.35710
Spin= Alpha
Occup=  0.00000
    1        -0.00000
    2        -0.00000
    3        -0.00000
    4         0.00000
    5        -0.00000
    6         0.00000
    7        -0.00000
    8        -0.00000
    9         0.01384
   10         0.00000
   11        -0.00000
   12         0.04747
   13         0.00000
   14         0.00000
   15         0.10310
   16         0.00000
   17        -0.00000
   18         0.17345
   19         0.00000
   20        -0.00000
   21         0.21540
   22         0.00000
   23        -0.00000
   24        -0.69889
   25        -0.00000
   26         0.00000
   27        -0.00000
   28        -0.00000
   29        -0.00411
   30        -0.00000
   31         0.00000
   32        -0.00000
   33         0.00000
   34         0.00000
   35        -0.04445
   36        -0.00000
   37        -0.00000
   38        -0.00000
   39        -0.00000
   40         0.00000
   41         0.00000
   42        -0.36347
   43        -0.00000
   44        -0.00000
   45        -1.01946
   46        -0.00000
   47         0.00000
   48         1.47164
   49         0.00000
   50         0.00000
   51        -0.00000
   52        -0.00000
   53        -0.00042
   54         0.00000
   55        -0.00000
Sym=    14A   
Ene=          1.35710
Spin= Alpha
Occup=  0.00000
    1        -0.00000
    2        -0.00000
    3        -0.00000
    4         0.00000
    5        -0.00000
    6         0.00000
    7        -0.00000
    8        -0.00000
    9        -0.00000
   10         0.01384
   11        -0.00000
   12        -0.00000
   13         0.04747
   14         0.00000
   15        -0.00000
   16         0.10310
   17        -0.00000
   18        -0.00000
   19         0.17345
   20        -0.00000
   21        -0.00000
   22         0.21540
   23        -0.00000
   24         0.00000
   25        -0.69889
   26         0.00000
   27        -0.00000
   28        -0.00000
   29         0.00000
   30        -0.00411
   31         0.00000
   32        -0.00000
   33         0.00000
   34         0.00000
   35         0.00000
   36        -0.04445
   37        -0.00000
   38        -0.00000
   39        -0.00000
   40         0.00000
   41         0.00000
   42         0.00000
   43        -0.36347
   44        -0.00000
   45         0.00000
   46        -1.01946
   47         0.00000
   48        -0.00000
   49         1.47164
   50         0.00000
   51        -0.00000
   52        -0.00000
   53         0.00000
   54        -0.00042
   55        -0.00000
Sym=    15A   
Ene=          1.35931
Spin= Alpha
Occup=  0.00000
    1         0.01801
    2         0.02679
    3         0.10789
    4        -0.05442
    5         0.23353
    6        -1.83028
    7         2.68114
    8         0.00164
    9         0.00000
   10         0.00000
   11         0.00957
   12         0.00000
   13         0.00000
   14         0.00026
   15         0.00000
   16         0.00000
   17         0.05390
   18         0.00000
   19         0.00000
   20         0.33347
   21         0.00000
   22         0.00000
   23         0.74125
   24        -0.00000
   25        -0.00000
   26        -0.01873
   27         0.00937
   28         0.00937
   29        -0.00000
   30        -0.00000
   31         0.00000
   32         0.12066
   33        -0.06033
   34        -0.06033
   35        -0.00000
   36        -0.00000
   37         0.00000
   38         0.01640
   39         0.00573
   40        -1.43760
   41        -0.02831
   42        -0.00000
   43        -0.00000
   44         0.36072
   45        -0.00000
   46        -0.00000
   47        -0.29529
   48         0.00000
   49         0.00000
   50        -0.03362
   51         0.01681
   52         0.01681
   53        -0.00000
   54        -0.00000
   55        -0.00000
Sym=    16A   
Ene=          1.58688
Spin= Alpha
Occup=  0.00000
    1         0.01567
    2         0.03148
    3         0.07031
    4         0.02198
    5        -0.00892
    6        -1.01374
    7        -0.97961
    8        -0.02212
    9        -0.00000
   10        -0.00000
   11        -0.07002
   12        -0.00000
   13        -0.00000
   14        -0.17220
   15        -0.00000
   16        -0.00000
   17        -0.24596
   18        -0.00000
   19        -0.00000
   20        -1.54487
   21         0.00000
   22         0.00000
   23         0.08644
   24        -0.00000
   25        -0.00000
   26         0.03533
   27        -0.01766
   28        -0.01766
   29        -0.00000
   30        -0.00000
   31        -0.00000
   32        -0.07225
   33         0.03613
   34         0.03613
   35         0.00000
   36         0.00000
   37         0.00000
   38        -0.07154
   39         0.18788
   40         1.87905
   41        -0.40557
   42        -0.00000
   43        -0.00000
   44        -1.37602
   45        -0.00000
   46        -0.00000
   47        -0.04778
   48         0.00000
   49         0.00000
   50        -0.00955
   51         0.00477
   52         0.00477
   53        -0.00000
   54        -0.00000
   55        -0.00000
Sym=    17A   
Ene=          1.79913
Spin= Alpha
Occup=  0.00000
    1        -0.00418
    2        -0.01212
    3        -0.00693
    4        -0.04613
    5         0.25340
    6        -0.47449
    7        -3.42296
    8         0.00666
    9         0.00000
   10         0.00000
   11         0.00793
   12        -0.00000
   13         0.00000
   14         0.09718
   15         0.00000
   16         0.00000
   17        -0.09062
   18        -0.00000
   19        -0.00000
   20        -1.24790
   21         0.00000
   22        -0.00000
   23        -1.01667
   24        -0.00000
   25        -0.00000
   26         0.00563
   27        -0.00281
   28        -0.00281
   29         0.00000
   30         0.00000
   31         0.00000
   32        -0.46126
   33         0.23063
   34         0.23063
   35        -0.00000
   36        -0.00000
   37         0.00000
   38         0.22691
   39        -1.95157
   40         5.51568
   41         0.02052
   42         0.00000
   43         0.00000
   44        -0.92033
   45         0.00000
   46         0.00000
   47        -1.19220
   48        -0.00000
   49         0.00000
   50         0.05981
   51        -0.02991
   52        -0.02991
   53         0.00000
   54         0.00000
   55         0.00000
Sym=    18A   
Ene=          1.88266
Spin= Alpha
Occup=  0.00000
    1        -0.00000
    2        -0.00000
    3         0.00000
    4        -0.00000
    5         0.00000
    6        -0.00000
    7         0.00000
    8         0.00000
    9        -0.02573
   10        -0.00000
   11         0.00000
   12        -0.17099
   13        -0.00000
   14         0.00000
   15        -0.00300
   16        -0.00000
   17         0.00000
   18        -1.48370
   19        -0.00000
   20         0.00000
   21         2.42711
   22         0.00000
   23         0.00000
   24        -1.02183
   25        -0.00000
   26        -0.00000
   27        -0.00000
   28         0.00000
   29        -0.00648
   30        -0.00000
   31        -0.00000
   32         0.00000
   33        -0.00000
   34         0.00000
   35        -0.15236
   36        -0.00000
   37        -0.00000
   38         0.00000
   39        -0.00000
   40        -0.00000
   41         0.00000
   42        -0.05318
   43        -0.00000
   44         0.00000
   45        -0.18456
   46        -0.00000
   47         0.00000
   48         0.19521
   49         0.00000
   50        -0.00000
   51        -0.00000
   52         0.00000
   53         0.01307
   54         0.00000
   55        -0.00000
Sym=    19A   
Ene=          1.88266
Spin= Alpha
Occup=  0.00000
    1         0.00000
    2        -0.00000
    3         0.00000
    4        -0.00000
    5         0.00000
    6        -0.00000
    7        -0.00000
    8         0.00000
    9         0.00000
   10        -0.02573
   11         0.00000
   12         0.00000
   13        -0.17099
   14         0.00000
   15         0.00000
   16        -0.00300
   17         0.00000
   18         0.00000
   19        -1.48370
   20        -0.00000
   21        -0.00000
   22         2.42711
   23         0.00000
   24         0.00000
   25        -1.02183
   26         0.00000
   27        -0.00000
   28        -0.00000
   29         0.00000
   30        -0.00648
   31        -0.00000
   32         0.00000
   33         0.00000
   34        -0.00000
   35         0.00000
   36        -0.15236
   37        -0.00000
   38         0.00000
   39        -0.00000
   40         0.00000
   41         0.00000
   42         0.00000
   43        -0.05318
   44         0.00000
   45         0.00000
   46        -0.18456
   47        -0.00000
   48        -0.00000
   49         0.19521
   50         0.00000
   51         0.00000
   52        -0.00000
   53        -0.00000
   54         0.01307
   55        -0.00000
Sym=    20A   
Ene=          1.89088
Spin= Alpha
Occup=  0.00000
    1        -0.00331
    2        -0.00424
    3        -0.02250
    4         0.01716
    5        -0.07784
    6         0.34471
    7         1.30962
    8        -0.02652
    9         0.00000
   10        -0.00000
   11        -0.16641
   12         0.00000
   13        -0.00000
   14        -0.01375
   15         0.00000
   16         0.00000
   17        -1.55839
   18         0.00000
   19        -0.00000
   20         3.28260
   21        -0.00000
   22         0.00000
   23        -0.81913
   24        -0.00000
   25        -0.00000
   26        -0.02440
   27         0.01220
   28         0.01220
   29        -0.00000
   30        -0.00000
   31        -0.00000
   32         0.02639
   33        -0.01320
   34        -0.01320
   35        -0.00000
   36        -0.00000
   37         0.00000
   38        -0.02537
   39        -0.05639
   40        -1.66580
   41        -0.06402
   42         0.00000
   43        -0.00000
   44         0.25444
   45         0.00000
   46        -0.00000
   47         0.79236
   48         0.00000
   49         0.00000
   50        -0.04660
   51         0.02330
   52         0.02330
   53         0.00000
   54         0.00000
   55         0.00000
Sym=    21A   
Ene=          2.00315
Spin= Alpha
Occup=  0.00000
    1         0.00000
    2         0.00000
    3        -0.00000
    4         0.00000
    5        -0.00000
    6         0.00000
    7        -0.00000
    8         0.00000
    9        -0.00000
   10         0.00000
   11         0.00000
   12        -0.00000
   13         0.00000
   14         0.00000
   15         0.00000
   16        -0.00000
   17         0.00000
   18        -0.00000
   19         0.00000
   20        -0.00000
   21         0.00000
   22        -0.00000
   23        -0.00000
   24        -0.00000
   25         0.00000
   26         0.00000
   27         0.00422
   28        -0.00422
   29        -0.00000
   30         0.00000
   31        -0.00000
   32        -0.00000
   33         0.85379
   34        -0.85379
   35        -0.00000
   36         0.00000
   37        -0.00000
   38         0.00000
   39        -0.00000
   40         0.00000
   41         0.00000
   42        -0.00000
   43         0.00000
   44        -0.00000
   45        -0.00000
   46         0.00000
   47        -0.00000
   48         0.00000
   49        -0.00000
   50         0.00000
   51         0.07058
   52        -0.07058
   53        -0.00000
   54        -0.00000
   55        -0.00000
Sym=    22A   
Ene=          2.00315
Spin= Alpha
Occup=  0.00000
    1         0.00000
    2         0.00000
    3        -0.00000
    4         0.00000
    5        -0.00000
    6         0.00000
    7        -0.00000
    8         0.00000
    9        -0.00000
   10        -0.00000
   11         0.00000
   12        -0.00000
   13        -0.00000
   14        -0.00000
   15         0.00000
   16         0.00000
   17         0.00000
   18        -0.00000
   19        -0.00000
   20        -0.00000
   21         0.00000
   22         0.00000
   23        -0.00000
   24        -0.00000
   25        -0.00000
   26         0.00000
   27        -0.00000
   28        -0.00000
   29        -0.00000
   30        -0.00000
   31         0.00487
   32        -0.00000
   33         0.00000
   34        -0.00000
   35        -0.00000
   36        -0.00000
   37         0.98587
   38        -0.00000
   39         0.00000
   40         0.00000
   41        -0.00000
   42        -0.00000
   43        -0.00000
   44        -0.00000
   45        -0.00000
   46        -0.00000
   47         0.00000
   48         0.00000
   49         0.00000
   50         0.00000
   51         0.00000
   52        -0.00000
   53         0.00000
   54        -0.00000
   55         0.08150
Sym=    23A   
Ene=          2.06257
Spin= Alpha
Occup=  0.00000
    1         0.00000
    2         0.00000
    3        -0.00000
    4         0.00000
    5        -0.00000