[Molden Format]
[Atoms] Angs
 C       1    4        0.0000000000        0.0000000000        0.0000000000
 C       2    6        1.5000000000        0.0000000000        0.0000000000
[GTO]
    1    0
 s        3    1.00
     30.1789000000      0.0658240000
      5.1896000000      0.2060210000
      1.0680000000     -0.0493600000
 s        1    1.00
      0.4002000000      1.0000000000
 s        1    1.00
      0.1351000000      1.0000000000
 p        2    1.00
      3.5409700000      0.1351450000
      0.8080800000      0.4301870000
 p        1    1.00
      0.2480000000      1.0000000000
 p        1    1.00
      0.0916000000      1.0000000000
 d        1    1.00
      0.8000000000      1.0000000000

    2    0
 s        5    1.00
  16371.0740000000      0.0002264183
   2426.9925000000      0.0017844680
    544.5441800000      0.0094901567
    150.8048700000      0.0396605150
     47.7081430000      0.1313402600
 s        1    1.00
     16.4572410000      1.0000000000
 s        1    1.00
      6.0845578000      1.0000000000
 s        1    1.00
      2.3824631000      1.0000000000
 s        1    1.00
      0.6619866000      1.0000000000
 s        1    1.00
      0.2469899700      1.0000000000
 s        1    1.00
      0.0949873000      1.0000000000
 p        2    1.00
     40.7904230000      0.0040969752
      9.5034633000      0.0275847660
 p        1    1.00
      2.9408357000      1.0000000000
 p        1    1.00
      1.0751115000      1.0000000000
 p        1    1.00
      0.4267024000      1.0000000000
 p        1    1.00
      0.1748192600      1.0000000000
 p        1    1.00
      0.0711305400      1.0000000000
 d        1    1.00
      1.4000000000      1.0000000000
 d        1    1.00
      0.3500000000      1.0000000000

[MO]
Sym=     1A   
Ene=         -8.71342
Spin= Alpha
Occup=  1.00000
    1        -0.00005
    2         0.00030
    3         0.00028
    4         0.00000
    5         0.00000
    6        -0.00000
    7         0.00036
    8         0.00000
    9         0.00000
   10         0.00020
   11         0.00000
   12        -0.00000
   13        -0.00007
   14         0.00003
   15         0.00003
   16         0.00000
   17        -0.00000
   18         0.00000
   19         0.17120
   20         0.31586
   21         0.43219
   22         0.21397
   23         0.01665
   24        -0.00556
   25         0.00123
   26        -0.00024
   27        -0.00000
   28        -0.00000
   29        -0.00041
   30        -0.00000
   31         0.00000
   32        -0.00005
   33         0.00000
   34        -0.00000
   35        -0.00024
   36        -0.00000
   37         0.00000
   38         0.00077
   39         0.00000
   40        -0.00000
   41        -0.00026
   42        -0.00000
   43         0.00000
   44        -0.00003
   45         0.00001
   46         0.00001
   47        -0.00000
   48        -0.00000
   49         0.00000
   50        -0.00013
   51         0.00006
   52         0.00006
   53         0.00000
   54         0.00000
   55        -0.00000
Sym=     2A   
Ene=          0.68017
Spin= Alpha
Occup=  1.00000
    1        -0.17129
    2         0.36147
    3         0.13822
    4         0.12039
    5        -0.00000
    6         0.00000
    7         0.06782
    8        -0.00000
    9         0.00000
   10        -0.05092
   11        -0.00000
   12         0.00000
   13         0.01093
   14        -0.00547
   15        -0.00547
   16        -0.00000
   17         0.00000
   18        -0.00000
   19        -0.02727
   20        -0.05910
   21        -0.10080
   22        -0.08569
   23         0.26431
   24         0.30318
   25         0.15367
   26        -0.00872
   27        -0.00000
   28         0.00000
   29        -0.02598
   30        -0.00000
   31         0.00000
   32        -0.06734
   33        -0.00000
   34         0.00000
   35        -0.08288
   36        -0.00000
   37         0.00000
   38        -0.04230
   39        -0.00000
   40         0.00000
   41        -0.01400
   42        -0.00000
   43         0.00000
   44         0.00749
   45        -0.00375
   46        -0.00375
   47        -0.00000
   48         0.00000
   49         0.00000
   50         0.01824
   51        -0.00912
   52        -0.00912
   53         0.00000
   54        -0.00000
   55        -0.00000
Sym=     3A   
Ene=          0.91600
Spin= Alpha
Occup=  1.00000
    1        -0.15429
    2         0.40547
    3         0.04814
    4        -0.13039
    5        -0.00000
    6         0.00000
    7         0.01825
    8        -0.00000
    9         0.00000
   10        -0.38266
   11        -0.00000
   12         0.00000
   13        -0.01138
   14         0.00569
   15         0.00569
   16        -0.00000
   17         0.00000
   18        -0.00000
   19         0.02422
   20         0.05226
   21         0.09190
   22         0.07401
   23        -0.22708
   24        -0.39578
   25         0.17386
   26        -0.00726
   27         0.00000
   28        -0.00000
   29        -0.02583
   30         0.00000
   31        -0.00000
   32        -0.04356
   33         0.00000
   34        -0.00000
   35        -0.11490
   36         0.00000
   37        -0.00000
   38         0.05675
   39         0.00000
   40        -0.00000
   41        -0.32817
   42         0.00000
   43        -0.00000
   44         0.00231
   45        -0.00116
   46        -0.00116
   47         0.00000
   48        -0.00000
   49         0.00000
   50        -0.00843
   51         0.00421
   52         0.00421
   53         0.00000
   54        -0.00000
   55        -0.00000
Sym=     4A   
Ene=          1.02571
Spin= Alpha
Occup=  1.00000
    1        -0.00000
    2        -0.00000
    3         0.00000
    4         0.00000
    5         0.19554
    6         0.00000
    7         0.00000
    8         0.20731
    9        -0.00000
   10         0.00000
   11        -0.09643
   12         0.00000
   13         0.00000
   14        -0.00000
   15        -0.00000
   16         0.01730
   17        -0.00000
   18         0.00000
   19         0.00000
   20         0.00000
   21         0.00000
   22         0.00000
   23        -0.00000
   24         0.00000
   25        -0.00000
   26        -0.00000
   27         0.01277
   28         0.00000
   29        -0.00000
   30         0.07098
   31         0.00000
   32        -0.00000
   33         0.02332
   34         0.00000
   35        -0.00000
   36         0.47828
   37         0.00000
   38         0.00000
   39        -0.61060
   40         0.00000
   41        -0.00000
   42         1.13893
   43        -0.00000
   44         0.00000
   45        -0.00000
   46        -0.00000
   47        -0.00426
   48        -0.00000
   49        -0.00000
   50        -0.00000
   51         0.00000
   52         0.00000
   53        -0.01479
   54        -0.00000
   55         0.00000
Sym=     5A   
Ene=          1.02571
Spin= Alpha
Occup=  1.00000
    1         0.00000
    2         0.00000
    3        -0.00000
    4        -0.00000
    5        -0.00000
    6         0.19554
    7        -0.00000
    8        -0.00000
    9         0.20731
   10        -0.00000
   11         0.00000
   12        -0.09643
   13        -0.00000
   14         0.00000
   15         0.00000
   16        -0.00000
   17         0.01730
   18        -0.00000
   19        -0.00000
   20        -0.00000
   21        -0.00000
   22        -0.00000
   23         0.00000
   24        -0.00000
   25         0.00000
   26         0.00000
   27        -0.00000
   28         0.01277
   29         0.00000
   30        -0.00000
   31         0.07098
   32         0.00000
   33        -0.00000
   34         0.02332
   35         0.00000
   36        -0.00000
   37         0.47828
   38        -0.00000
   39        -0.00000
   40        -0.61060
   41         0.00000
   42        -0.00000
   43         1.13893
   44        -0.00000
   45         0.00000
   46         0.00000
   47         0.00000
   48        -0.00426
   49        -0.00000
   50         0.00000
   51        -0.00000
   52         0.00000
   53        -0.00000
   54        -0.01479
   55        -0.00000
Sym=     6A   
Ene=          1.02640
Spin= Alpha
Occup=  1.00000
    1         0.00338
    2         0.04402
    3        -0.67547
    4        -0.26289
    5         0.00000
    6        -0.00000
    7        -0.05961
    8         0.00000
    9        -0.00000
   10        -1.03781
   11        -0.00000
   12         0.00000
   13        -0.00545
   14         0.00273
   15         0.00273
   16         0.00000
   17        -0.00000
   18        -0.00000
   19        -0.00756
   20        -0.01803
   21        -0.02375
   22        -0.03768
   23         0.12728
   24        -0.07000
   25         1.44531
   26         0.01911
   27         0.00000
   28        -0.00000
   29         0.07262
   30         0.00000
   31        -0.00000
   32         0.11252
   33         0.00000
   34        -0.00000
   35         0.37498
   36         0.00000
   37        -0.00000
   38        -0.30454
   39        -0.00000
   40         0.00000
   41         0.07950
   42         0.00000
   43        -0.00000
   44        -0.01054
   45         0.00527
   46         0.00527
   47        -0.00000
   48         0.00000
   49        -0.00000
   50         0.00427
   51        -0.00214
   52        -0.00214
   53        -0.00000
   54         0.00000
   55         0.00000
Sym=     7A   
Ene=          1.10584
Spin= Alpha
Occup=  1.00000
    1         0.00000
    2        -0.00000
    3         0.00000
    4        -0.00000
    5        -0.29410
    6        -0.00000
    7         0.00000
    8        -0.00958
    9         0.00000
   10         0.00000
   11        -1.00272
   12        -0.00000
   13         0.00000
   14         0.00000
   15        -0.00000
   16        -0.00528
   17         0.00000
   18        -0.00000
   19         0.00000
   20         0.00000
   21         0.00000
   22         0.00000
   23        -0.00000
   24        -0.00000
   25        -0.00000
   26         0.00000
   27        -0.01228
   28        -0.00000
   29         0.00000
   30        -0.00551
   31        -0.00000
   32         0.00000
   33        -0.17369
   34        -0.00000
   35         0.00000
   36         0.24067
   37         0.00000
   38         0.00000
   39        -0.94278
   40        -0.00000
   41         0.00000
   42         1.64589
   43         0.00000
   44         0.00000
   45        -0.00000
   46        -0.00000
   47         0.01097
   48         0.00000
   49        -0.00000
   50        -0.00000
   51         0.00000
   52         0.00000
   53         0.00425
   54        -0.00000
   55        -0.00000
Sym=     8A   
Ene=          1.10584
Spin= Alpha
Occup=  1.00000
    1        -0.00000
    2         0.00000
    3        -0.00000
    4         0.00000
    5         0.00000
    6        -0.29410
    7        -0.00000
    8         0.00000
    9        -0.00958
   10        -0.00000
   11         0.00000
   12        -1.00272
   13        -0.00000
   14         0.00000
   15        -0.00000
   16         0.00000
   17        -0.00528
   18         0.00000
   19        -0.00000
   20        -0.00000
   21        -0.00000
   22        -0.00000
   23         0.00000
   24         0.00000
   25         0.00000
   26        -0.00000
   27         0.00000
   28        -0.01228
   29        -0.00000
   30         0.00000
   31        -0.00551
   32         0.00000
   33         0.00000
   34        -0.17369
   35        -0.00000
   36        -0.00000
   37         0.24067
   38         0.00000
   39         0.00000
   40        -0.94278
   41        -0.00000
   42        -0.00000
   43         1.64589
   44        -0.00000
   45        -0.00000
   46         0.00000
   47        -0.00000
   48         0.01097
   49        -0.00000
   50         0.00000
   51         0.00000
   52        -0.00000
   53         0.00000
   54         0.00425
   55         0.00000
Sym=     9A   
Ene=          1.11640
Spin= Alpha
Occup=  0.00000
    1        -0.07983
    2        -0.11462
    3         1.73801
    4        -0.04903
    5        -0.00000
    6        -0.00000
    7        -0.25527
    8        -0.00000
    9         0.00000
   10         0.64352
   11         0.00000
   12        -0.00000
   13         0.01269
   14        -0.00634
   15        -0.00634
   16        -0.00000
   17         0.00000
   18        -0.00000
   19         0.00979
   20         0.02075
   21         0.03890
   22         0.02685
   23        -0.09060
   24        -0.16563
   25        -1.07860
   26        -0.00367
   27         0.00000
   28         0.00000
   29         0.02110
   30        -0.00000
   31         0.00000
   32        -0.10826
   33         0.00000
   34        -0.00000
   35         0.34257
   36        -0.00000
   37         0.00000
   38        -0.84126
   39         0.00000
   40        -0.00000
   41         1.94191
   42        -0.00000
   43         0.00000
   44         0.00352
   45        -0.00176
   46        -0.00176
   47        -0.00000
   48        -0.00000
   49        -0.00000
   50         0.00566
   51        -0.00283
   52        -0.00283
   53         0.00000
   54        -0.00000
   55         0.00000
Sym=    10A   
Ene=          1.19018
Spin= Alpha
Occup=  0.00000
    1         0.07022
    2        -0.10180
    3        -1.65637
    4         0.19368
    5        -0.00000
    6         0.00000
    7         0.37673
    8         0.00000
    9        -0.00000
   10        -1.87080
   11        -0.00000
   12         0.00000
   13         0.03571
   14        -0.01786
   15        -0.01786
   16         0.00000
   17         0.00000
   18        -0.00000
   19         0.00410
   20         0.00748
   21         0.02026
   22        -0.00155
   23         0.03255
   24        -0.36128
   25         2.30135
   26        -0.02067
   27         0.00000
   28        -0.00000
   29        -0.02498
   30         0.00000
   31        -0.00000
   32        -0.26370
   33         0.00000
   34        -0.00000
   35         0.27172
   36         0.00000
   37        -0.00000
   38        -1.44441
   39         0.00000
   40        -0.00000
   41         0.61916
   42        -0.00000
   43         0.00000
   44        -0.00186
   45         0.00093
   46         0.00093
   47         0.00000
   48        -0.00000
   49        -0.00000
   50         0.02945
   51        -0.01472
   52        -0.01472
   53         0.00000
   54        -0.00000
   55         0.00000
Sym=    11A   
Ene=          1.20382
Spin= Alpha
Occup=  0.00000
    1        -0.00000
    2        -0.00000
    3         0.00000
    4        -0.00000
    5        -0.11016
    6         0.00000
    7        -0.00000
    8         0.14820
    9        -0.00000
   10         0.00000
   11        -0.83590
   12         0.00000
   13        -0.00000
   14         0.00000
   15         0.00000
   16         0.01909
   17        -0.00000
   18        -0.00000
   19        -0.00000
   20        -0.00000
   21         0.00000
   22        -0.00000
   23         0.00000
   24        -0.00000
   25        -0.00000
   26         0.00000
   27         0.02971
   28        -0.00000
   29         0.00000
   30         0.06885
   31        -0.00000
   32         0.00000
   33         0.29144
   34        -0.00000
   35        -0.00000
   36         0.04235
   37         0.00000
   38         0.00000
   39         0.91470
   40        -0.00000
   41        -0.00000
   42        -0.31288
   43         0.00000
   44         0.00000
   45        -0.00000
   46         0.00000
   47         0.00325
   48        -0.00000
   49         0.00000
   50         0.00000
   51        -0.00000
   52         0.00000
   53        -0.01168
   54         0.00000
   55         0.00000
Sym=    12A   
Ene=          1.20382
Spin= Alpha
Occup=  0.00000
    1        -0.00000
    2         0.00000
    3        -0.00000
    4        -0.00000
    5        -0.00000
    6        -0.11016
    7        -0.00000
    8         0.00000
    9         0.14820
   10        -0.00000
   11        -0.00000
   12        -0.83590
   13        -0.00000
   14         0.00000
   15        -0.00000
   16         0.00000
   17         0.01909
   18         0.00000
   19         0.00000
   20         0.00000
   21        -0.00000
   22         0.00000
   23        -0.00000
   24         0.00000
   25         0.00000
   26        -0.00000
   27         0.00000
   28         0.02971
   29        -0.00000
   30         0.00000
   31         0.06885
   32        -0.00000
   33         0.00000
   34         0.29144
   35        -0.00000
   36        -0.00000
   37         0.04235
   38        -0.00000
   39         0.00000
   40         0.91470
   41        -0.00000
   42        -0.00000
   43        -0.31288
   44        -0.00000
   45        -0.00000
   46         0.00000
   47         0.00000
   48         0.00325
   49        -0.00000
   50        -0.00000
   51        -0.00000
   52         0.00000
   53        -0.00000
   54        -0.01168
   55        -0.00000
Sym=    13A   
Ene=          1.35710
Spin= Alpha
Occup=  0.00000
    1        -0.00000
    2         0.00000
    3         0.00000
    4        -0.00000
    5        -0.36347
    6         0.00000
    7         0.00000
    8        -1.01946
    9         0.00000
   10        -0.00000
   11         1.47164
   12        -0.00000
   13         0.00000
   14        -0.00000
   15        -0.00000
   16         0.00042
   17         0.00000
   18        -0.00000
   19        -0.00000
   20        -0.00000
   21        -0.00000
   22         0.00000
   23        -0.00000
   24         0.00000
   25        -0.00000
   26         0.00000
   27         0.01384
   28        -0.00000
   29         0.00000
   30         0.04747
   31        -0.00000
   32         0.00000
   33         0.10310
   34        -0.00000
   35         0.00000
   36         0.17345
   37        -0.00000
   38         0.00000
   39         0.21540
   40        -0.00000
   41         0.00000
   42        -0.69889
   43         0.00000
   44         0.00000
   45        -0.00000
   46        -0.00000
   47         0.00411
   48        -0.00000
   49         0.00000
   50        -0.00000
   51         0.00000
   52         0.00000
   53         0.04445
   54        -0.00000
   55         0.00000
Sym=    14A   
Ene=          1.35710
Spin= Alpha
Occup=  0.00000
    1         0.00000
    2        -0.00000
    3        -0.00000
    4         0.00000
    5        -0.00000
    6        -0.36347
    7        -0.00000
    8        -0.00000
    9        -1.01946
   10         0.00000
   11         0.00000
   12         1.47164
   13        -0.00000
   14         0.00000
   15         0.00000
   16        -0.00000
   17         0.00042
   18         0.00000
   19         0.00000
   20         0.00000
   21         0.00000
   22        -0.00000
   23         0.00000
   24        -0.00000
   25         0.00000
   26        -0.00000
   27         0.00000
   28         0.01384
   29        -0.00000
   30         0.00000
   31         0.04747
   32        -0.00000
   33        -0.00000
   34         0.10310
   35        -0.00000
   36         0.00000
   37         0.17345
   38        -0.00000
   39        -0.00000
   40         0.21540
   41        -0.00000
   42        -0.00000
   43        -0.69889
   44        -0.00000
   45         0.00000
   46         0.00000
   47        -0.00000
   48         0.00411
   49         0.00000
   50         0.00000
   51        -0.00000
   52        -0.00000
   53        -0.00000
   54         0.04445
   55        -0.00000
Sym=    15A   
Ene=          1.35931
Spin= Alpha
Occup=  0.00000
    1         0.01640
    2         0.00573
    3        -1.43760
    4         0.02831
    5        -0.00000
    6         0.00000
    7        -0.36072
    8        -0.00000
    9         0.00000
   10         0.29529
   11         0.00000
   12        -0.00000
   13        -0.03362
   14         0.01681
   15         0.01681
   16         0.00000
   17        -0.00000
   18         0.00000
   19         0.01801
   20         0.02679
   21         0.10789
   22        -0.05442
   23         0.23353
   24        -1.83028
   25         2.68114
   26        -0.00164
   27         0.00000
   28        -0.00000
   29        -0.00957
   30         0.00000
   31        -0.00000
   32        -0.00026
   33         0.00000
   34        -0.00000
   35        -0.05390
   36         0.00000
   37        -0.00000
   38        -0.33347
   39         0.00000
   40        -0.00000
   41        -0.74125
   42        -0.00000
   43         0.00000
   44        -0.01873
   45         0.00937
   46         0.00937
   47         0.00000
   48        -0.00000
   49         0.00000
   50         0.12066
   51        -0.06033
   52        -0.06033
   53         0.00000
   54        -0.00000
   55         0.00000
Sym=    16A   
Ene=          1.58688
Spin= Alpha
Occup=  0.00000
    1        -0.07154
    2         0.18788
    3         1.87905
    4         0.40557
    5         0.00000
    6        -0.00000
    7         1.37602
    8        -0.00000
    9        -0.00000
   10         0.04778
   11         0.00000
   12         0.00000
   13        -0.00955
   14         0.00477
   15         0.00477
   16        -0.00000
   17         0.00000
   18         0.00000
   19         0.01567
   20         0.03148
   21         0.07031
   22         0.02198
   23        -0.00892
   24        -1.01374
   25        -0.97961
   26         0.02212
   27        -0.00000
   28         0.00000
   29         0.07002
   30        -0.00000
   31         0.00000
   32         0.17220
   33        -0.00000
   34         0.00000
   35         0.24596
   36        -0.00000
   37         0.00000
   38         1.54487
   39         0.00000
   40         0.00000
   41        -0.08644
   42        -0.00000
   43        -0.00000
   44         0.03533
   45        -0.01766
   46        -0.01766
   47        -0.00000
   48         0.00000
   49        -0.00000
   50        -0.07225
   51         0.03613
   52         0.03613
   53        -0.00000
   54         0.00000
   55        -0.00000
Sym=    17A   
Ene=          1.79913
Spin= Alpha
Occup=  0.00000
    1         0.22691
    2        -1.95157
    3         5.51568
    4        -0.02052
    5         0.00000
    6        -0.00000
    7         0.92033
    8        -0.00000
    9         0.00000
   10         1.19220
   11         0.00000
   12        -0.00000
   13         0.05981
   14        -0.02991
   15        -0.02991
   16        -0.00000
   17        -0.00000
   18         0.00000
   19        -0.00418
   20        -0.01212
   21        -0.00693
   22        -0.04613
   23         0.25340
   24        -0.47449
   25        -3.42296
   26        -0.00666
   27         0.00000
   28        -0.00000
   29        -0.00793
   30         0.00000
   31        -0.00000
   32        -0.09718
   33        -0.00000
   34        -0.00000
   35         0.09062
   36         0.00000
   37        -0.00000
   38         1.24790
   39        -0.00000
   40         0.00000
   41         1.01667
   42         0.00000
   43        -0.00000
   44         0.00563
   45        -0.00281
   46        -0.00281
   47         0.00000
   48         0.00000
   49         0.00000
   50        -0.46126
   51         0.23063
   52         0.23063
   53         0.00000
   54        -0.00000
   55        -0.00000
Sym=    18A   
Ene=          1.88266
Spin= Alpha
Occup=  0.00000
    1         0.00000
    2        -0.00000
    3         0.00000
    4        -0.00000
    5        -0.05318
    6         0.00000
    7         0.00000
    8        -0.18456
    9        -0.00000
   10         0.00000
   11         0.19521
   12         0.00000
   13         0.00000
   14        -0.00000
   15        -0.00000
   16        -0.01307
   17         0.00000
   18         0.00000
   19         0.00000
   20        -0.00000
   21         0.00000
   22        -0.00000
   23         0.00000
   24        -0.00000
   25        -0.00000
   26        -0.00000
   27        -0.02573
   28        -0.00000
   29        -0.00000
   30        -0.17099
   31        -0.00000
   32        -0.00000
   33        -0.00300
   34        -0.00000
   35        -0.00000
   36        -1.48370
   37        -0.00000
   38         0.00000
   39         2.42711
   40         0.00000
   41        -0.00000
   42        -1.02183
   43        -0.00000
   44         0.00000
   45        -0.00000
   46        -0.00000
   47         0.00648
   48         0.00000
   49        -0.00000
   50        -0.00000
   51        -0.00000
   52         0.00000
   53         0.15236
   54        -0.00000
   55         0.00000
Sym=    19A   
Ene=          1.88266
Spin= Alpha
Occup=  0.00000
    1        -0.00000
    2         0.00000
    3        -0.00000
    4         0.00000
    5         0.00000
    6        -0.05318
    7        -0.00000
    8         0.00000
    9        -0.18456
   10        -0.00000
   11         0.00000
   12         0.19521
   13        -0.00000
   14         0.00000
   15         0.00000
   16        -0.00000
   17        -0.01307
   18        -0.00000
   19        -0.00000
   20        -0.00000
   21        -0.00000
   22         0.00000
   23        -0.00000
   24         0.00000
   25         0.00000
   26         0.00000
   27         0.00000
   28        -0.02573
   29         0.00000
   30         0.00000
   31        -0.17099
   32         0.00000
   33        -0.00000
   34        -0.00300
   35         0.00000
   36         0.00000
   37        -1.48370
   38        -0.00000
   39        -0.00000
   40         2.42711
   41         0.00000
   42         0.00000
   43        -1.02183
   44        -0.00000
   45         0.00000
   46         0.00000
   47         0.00000
   48         0.00648
   49         0.00000
   50         0.00000
   51        -0.00000
   52         0.00000
   53         0.00000
   54         0.15236
   55        -0.00000
Sym=    20A   
Ene=          1.89088
Spin= Alpha
Occup=  0.00000
    1         0.02537
    2         0.05639
    3         1.66580
    4        -0.06402
    5         0.00000
    6        -0.00000
    7         0.25444
    8         0.00000
    9        -0.00000
   10         0.79236
   11        -0.00000
   12         0.00000
   13         0.04660
   14        -0.02330
   15        -0.02330
   16         0.00000
   17        -0.00000
   18         0.00000
   19         0.00331
   20         0.00424
   21         0.02250
   22        -0.01716
   23         0.07784
   24        -0.34471
   25        -1.30962
   26        -0.02652
   27         0.00000
   28        -0.00000
   29        -0.16641
   30         0.00000
   31        -0.00000
   32        -0.01375
   33        -0.00000
   34        -0.00000
   35        -1.55839
   36         0.00000
   37        -0.00000
   38         3.28260
   39        -0.00000
   40         0.00000
   41        -0.81913
   42         0.00000
   43        -0.00000
   44         0.02440
   45        -0.01220
   46        -0.01220
   47         0.00000
   48         0.00000
   49         0.00000
   50        -0.02639
   51         0.01320
   52         0.01320
   53        -0.00000
   54         0.00000
   55         0.00000
Sym=    21A   
Ene=          2.00315
Spin= Alpha
Occup=  0.00000
    1        -0.00000
    2         0.00000
    3         0.00000
    4        -0.00000
    5         0.00000
    6         0.00000
    7         0.00000
    8         0.00000
    9         0.00000
   10         0.00000
   11         0.00000
   12         0.00000
   13         0.00000
   14         0.07058
   15        -0.07058
   16        -0.00000
   17        -0.00000
   18        -0.00000
   19         0.00000
   20         0.00000
   21         0.00000
   22         0.00000
   23        -0.00000
   24        -0.00000
   25        -0.00000
   26        -0.00000
   27        -0.00000
   28        -0.00000
   29        -0.00000
   30        -0.00000
   31        -0.00000
   32         0.00000
   33         0.00000
   34         0.00000
   35        -0.00000
   36        -0.00000
   37        -0.00000
   38         0.00000
   39         0.00000
   40         0.00000
   41        -0.00000
   42        -0.00000
   43        -0.00000
   44         0.00000
   45         0.00422
   46        -0.00422
   47        -0.00000
   48        -0.00000
   49         0.00000
   50        -0.00000
   51         0.85379
   52        -0.85379
   53         0.00000
   54         0.00000
   55        -0.00000
Sym=    22A   
Ene=          2.00315
Spin= Alpha
Occup=  0.00000
    1        -0.00000
    2        -0.00000
    3        -0.00000
    4         0.00000
    5        -0.00000
    6         0.00000
    7        -0.00000
    8        -0.00000
    9         0.00000
   10        -0.00000
   11        -0.00000
   12         0.00000
   13         0.00000
   14         0.00000
   15        -0.00000
   16         0.00000
   17        -0.00000
   18         0.08150
   19        -0.00000
   20         0.00000
   21        -0.00000
   22         0.00000
   23        -0.00000
   24         0.00000
   25        -0.00000
   26         0.00000
   27        -0.00000
   28        -0.00000
   29         0.00000
   30         0.00000
   31        -0.00000
   32         0.00000
   33        -0.00000
   34         0.00000
   35         0.00000
   36         0.00000
   37        -0.00000
   38        -0.00000
   39        -0.00000
   40         0.00000
   41         0.00000
   42         0.00000
   43        -0.00000
   44         0.00000
   45        -0.00000
   46        -0.00000
   47        -0.00000
   48        -0.00000
   49         0.00487
   50         0.00000
   51         0.00000
   52        -0.00000
   53        -0.00000
   54         0.00000
   55         0.98587
Sym=    23A   
Ene=          2.06257
Spin= Alpha
Occup=  0.00000
    1        -0.00000
    2         0.00000
    3        -0.00000
    4         0.00000
    5         0.11401