[Molden Format]
[Atoms] Angs
 C       1    6        0.0000000000        0.0000000000        0.0000000000
 C       2    4        1.5000000000        0.0000000000        0.0000000000
[GTO]
    1    0
 s        5    1.00
  16371.0740000000      0.0002264183
   2426.9925000000      0.0017844680
    544.5441800000      0.0094901567
    150.8048700000      0.0396605150
     47.7081430000      0.1313402600
 s        1    1.00
     16.4572410000      1.0000000000
 s        1    1.00
      6.0845578000      1.0000000000
 s        1    1.00
      2.3824631000      1.0000000000
 s        1    1.00
      0.6619866000      1.0000000000
 s        1    1.00
      0.2469899700      1.0000000000
 s        1    1.00
      0.0949873000      1.0000000000
 p        2    1.00
     40.7904230000      0.0040969752
      9.5034633000      0.0275847660
 p        1    1.00
      2.9408357000      1.0000000000
 p        1    1.00
      1.0751115000      1.0000000000
 p        1    1.00
      0.4267024000      1.0000000000
 p        1    1.00
      0.1748192600      1.0000000000
 p        1    1.00
      0.0711305400      1.0000000000
 d        1    1.00
      1.4000000000      1.0000000000
 d        1    1.00
      0.3500000000      1.0000000000

    2    0
 s        3    1.00
     30.1789000000      0.0658240000
      5.1896000000      0.2060210000
      1.0680000000     -0.0493600000
 s        1    1.00
      0.4002000000      1.0000000000
 s        1    1.00
      0.1351000000      1.0000000000
 p        2    1.00
      3.5409700000      0.1351450000
      0.8080800000      0.4301870000
 p        1    1.00
      0.2480000000      1.0000000000
 p        1    1.00
      0.0916000000      1.0000000000
 d        1    1.00
      0.8000000000      1.0000000000

[MO]
Sym=     1A   
Ene=         -9.40403
Spin= Alpha
Occup=  0.00000
    1         0.17653
    2         0.33893
    3         0.41270
    4         0.21112
    5         0.00523
    6         0.00080
    7        -0.00031
    8         0.00052
    9        -0.00000
   10        -0.00000
   11         0.00081
   12        -0.00000
   13        -0.00000
   14         0.00003
   15         0.00000
   16        -0.00000
   17         0.00009
   18        -0.00000
   19         0.00000
   20         0.00022
   21         0.00000
   22        -0.00000
   23        -0.00008
   24        -0.00000
   25         0.00000
   26         0.00024
   27         0.00003
   28        -0.00026
   29        -0.00000
   30         0.00000
   31        -0.00000
   32         0.00007
   33        -0.00007
   34        -0.00000
   35         0.00000
   36        -0.00000
   37         0.00000
   38        -0.00004
   39        -0.00015
   40        -0.00009
   41         0.00003
   42        -0.00000
   43        -0.00000
   44         0.00017
   45        -0.00000
   46        -0.00000
   47         0.00004
   48        -0.00000
   49         0.00000
   50         0.00003
   51        -0.00001
   52        -0.00002
   53         0.00000
   54         0.00000
   55        -0.00000
Sym=     2A   
Ene=          0.60856
Spin= Alpha
Occup=  1.00000
    1        -0.02899
    2        -0.06150
    3        -0.11768
    4        -0.05370
    5         0.30712
    6         0.22547
    7         0.12466
    8         0.01030
    9        -0.00000
   10        -0.00000
   11         0.03606
   12        -0.00000
   13        -0.00000
   14         0.08774
   15        -0.00000
   16        -0.00000
   17         0.07717
   18        -0.00000
   19        -0.00000
   20         0.03594
   21        -0.00000
   22         0.00000
   23         0.01844
   24        -0.00000
   25        -0.00000
   26         0.01158
   27        -0.00470
   28        -0.00688
   29        -0.00000
   30        -0.00000
   31        -0.00000
   32         0.01225
   33        -0.00168
   34        -0.01058
   35         0.00000
   36         0.00000
   37        -0.00000
   38        -0.17714
   39         0.39469
   40         0.14603
   41        -0.13550
   42        -0.00000
   43        -0.00000
   44        -0.08012
   45        -0.00000
   46        -0.00000
   47         0.03473
   48         0.00000
   49         0.00000
   50         0.01260
   51        -0.00561
   52        -0.00699
   53        -0.00000
   54         0.00000
   55        -0.00000
Sym=     3A   
Ene=          0.86960
Spin= Alpha
Occup=  1.00000
    1         0.02849
    2         0.05995
    3         0.11939
    4         0.04756
    5        -0.28699
    6        -0.39331
    7         0.10634
    8         0.00584
    9         0.00000
   10         0.00000
   11         0.02262
   12         0.00000
   13         0.00000
   14         0.03975
   15         0.00000
   16         0.00000
   17         0.07370
   18         0.00000
   19        -0.00000
   20        -0.08542
   21        -0.00000
   22        -0.00000
   23         0.24299
   24        -0.00000
   25        -0.00000
   26         0.00014
   27        -0.00136
   28         0.00122
   29         0.00000
   30        -0.00000
   31         0.00000
   32        -0.00831
   33        -0.00032
   34         0.00863
   35        -0.00000
   36         0.00000
   37         0.00000
   38        -0.16599
   39         0.42451
   40         0.17635
   41         0.14755
   42        -0.00000
   43         0.00000
   44         0.00573
   45        -0.00000
   46         0.00000
   47         0.29379
   48         0.00000
   49         0.00000
   50        -0.01646
   51         0.00883
   52         0.00763
   53        -0.00000
   54         0.00000
   55        -0.00000
Sym=     4A   
Ene=          0.97625
Spin= Alpha
Occup=  1.00000
    1         0.00000
    2         0.00000
    3         0.00000
    4         0.00000
    5        -0.00000
    6        -0.00000
    7         0.00000
    8         0.00000
    9         0.01679
   10        -0.00000
   11         0.00000
   12         0.08167
   13        -0.00000
   14         0.00000
   15         0.09111
   16        -0.00000
   17         0.00000
   18         0.36092
   19        -0.00000
   20        -0.00000
   21        -0.33464
   22         0.00000
   23         0.00000
   24         0.64543
   25        -0.00000
   26         0.00000
   27        -0.00000
   28         0.00000
   29         0.00719
   30        -0.00000
   31        -0.00000
   32         0.00000
   33        -0.00000
   34         0.00000
   35         0.02343
   36        -0.00000
   37         0.00000
   38         0.00000
   39        -0.00000
   40        -0.00000
   41        -0.00000
   42         0.29731
   43        -0.00000
   44        -0.00000
   45         0.21770
   46        -0.00000
   47         0.00000
   48         0.15919
   49        -0.00000
   50         0.00000
   51        -0.00000
   52         0.00000
   53        -0.02003
   54         0.00000
   55        -0.00000
Sym=     5A   
Ene=          0.98864
Spin= Alpha
Occup=  1.00000
    1        -0.00000
    2        -0.00000
    3        -0.00000
    4        -0.00000
    5         0.00000
    6        -0.00000
    7         0.00000
    8        -0.00000
    9         0.00000
   10         0.01583
   11        -0.00000
   12         0.00000
   13         0.07888
   14        -0.00000
   15         0.00000
   16         0.08162
   17        -0.00000
   18         0.00000
   19         0.35717
   20         0.00000
   21        -0.00000
   22        -0.35767
   23        -0.00000
   24         0.00000
   25         0.65220
   26        -0.00000
   27         0.00000
   28         0.00000
   29         0.00000
   30         0.00754
   31        -0.00000
   32        -0.00000
   33        -0.00000
   34         0.00000
   35         0.00000
   36         0.02101
   37        -0.00000
   38         0.00000
   39         0.00000
   40        -0.00000
   41         0.00000
   42         0.00000
   43         0.31193
   44         0.00000
   45         0.00000
   46         0.22854
   47         0.00000
   48         0.00000
   49         0.16294
   50        -0.00000
   51         0.00000
   52         0.00000
   53        -0.00000
   54        -0.01991
   55        -0.00000
Sym=     6A   
Ene=          0.99353
Spin= Alpha
Occup=  1.00000
    1        -0.01257
    2        -0.02828
    3        -0.04753
    4        -0.03657
    5         0.18681
    6        -0.00047
    7         1.15924
    8        -0.02383
    9         0.00000
   10        -0.00000
   11        -0.09542
   12         0.00000
   13        -0.00000
   14        -0.17513
   15         0.00000
   16        -0.00000
   17        -0.32867
   18         0.00000
   19        -0.00000
   20         0.20045
   21        -0.00000
   22         0.00000
   23        -0.02833
   24         0.00000
   25        -0.00000
   26        -0.01108
   27         0.00605
   28         0.00503
   29         0.00000
   30        -0.00000
   31        -0.00000
   32        -0.00423
   33         0.00552
   34        -0.00129
   35         0.00000
   36        -0.00000
   37        -0.00000
   38        -0.00489
   39         0.03084
   40        -0.49019
   41         0.28187
   42         0.00000
   43        -0.00000
   44         0.10986
   45        -0.00000
   46        -0.00000
   47         0.79875
   48         0.00000
   49        -0.00000
   50        -0.01114
   51         0.00547
   52         0.00567
   53        -0.00000
   54         0.00000
   55        -0.00000
Sym=     7A   
Ene=          1.07358
Spin= Alpha
Occup=  1.00000
    1         0.00000
    2         0.00000
    3         0.00000
    4         0.00000
    5        -0.00000
    6         0.00000
    7        -0.00000
    8        -0.00000
    9        -0.00740
   10         0.00000
   11        -0.00000
   12         0.01639
   13        -0.00000
   14        -0.00000
   15        -0.15762
   16         0.00000
   17        -0.00000
   18         0.38912
   19        -0.00000
   20         0.00000
   21        -1.06775
   22         0.00000
   23        -0.00000
   24         1.85041
   25        -0.00000
   26         0.00000
   27         0.00000
   28        -0.00000
   29        -0.01022
   30         0.00000
   31         0.00000
   32         0.00000
   33        -0.00000
   34        -0.00000
   35         0.00534
   36        -0.00000
   37         0.00000
   38        -0.00000
   39         0.00000
   40         0.00000
   41         0.00000
   42        -0.26287
   43         0.00000
   44         0.00000
   45        -0.02038
   46         0.00000
   47        -0.00000
   48        -0.87017
   49         0.00000
   50        -0.00000
   51         0.00000
   52        -0.00000
   53         0.00204
   54        -0.00000
   55         0.00000
Sym=     8A   
Ene=          1.08124
Spin= Alpha
Occup=  1.00000
    1        -0.00000
    2        -0.00000
    3        -0.00000
    4        -0.00000
    5         0.00000
    6         0.00000
    7         0.00000
    8        -0.00000
    9        -0.00000
   10        -0.00684
   11         0.00000
   12         0.00000
   13         0.01883
   14        -0.00000
   15        -0.00000
   16        -0.15356
   17         0.00000
   18         0.00000
   19         0.39745
   20        -0.00000
   21        -0.00000
   22        -1.06640
   23         0.00000
   24         0.00000
   25         1.85212
   26        -0.00000
   27         0.00000
   28         0.00000
   29        -0.00000
   30        -0.01020
   31         0.00000
   32        -0.00000
   33         0.00000
   34         0.00000
   35         0.00000
   36         0.00674
   37        -0.00000
   38         0.00000
   39         0.00000
   40        -0.00000
   41        -0.00000
   42        -0.00000
   43        -0.26655
   44        -0.00000
   45        -0.00000
   46        -0.01716
   47         0.00000
   48        -0.00000
   49        -0.87256
   50        -0.00000
   51         0.00000
   52         0.00000
   53        -0.00000
   54         0.00137
   55         0.00000
Sym=     9A   
Ene=          1.08875
Spin= Alpha
Occup=  1.00000
    1        -0.00814
    2        -0.01751
    3        -0.03346
    4        -0.01705
    5         0.10725
    6         0.03539
    7         1.14172
    8        -0.00217
    9        -0.00000
   10         0.00000
   11         0.02791
   12        -0.00000
   13        -0.00000
   14        -0.09960
   15        -0.00000
   16         0.00000
   17         0.37438
   18         0.00000
   19        -0.00000
   20        -0.87009
   21        -0.00000
   22         0.00000
   23         1.97031
   24         0.00000
   25        -0.00000
   26        -0.00315
   27         0.00199
   28         0.00116
   29        -0.00000
   30         0.00000
   31        -0.00000
   32        -0.00153
   33         0.00207
   34        -0.00053
   35        -0.00000
   36        -0.00000
   37        -0.00000
   38         0.07443
   39         0.11542
   40        -1.69960
   41        -0.04165
   42        -0.00000
   43         0.00000
   44        -0.26408
   45        -0.00000
   46         0.00000
   47         0.65797
   48        -0.00000
   49         0.00000
   50        -0.01035
   51         0.00493
   52         0.00542
   53         0.00000
   54        -0.00000
   55         0.00000
Sym=    10A   
Ene=          1.15120
Spin= Alpha
Occup=  0.00000
    1        -0.00000
    2        -0.00000
    3        -0.00000
    4         0.00000
    5         0.00000
    6         0.00000
    7        -0.00000
    8        -0.00000
    9         0.03380
   10        -0.00000
   11        -0.00000
   12         0.10084
   13        -0.00000
   14        -0.00000
   15         0.33076
   16        -0.00000
   17         0.00000
   18         0.06569
   19        -0.00000
   20        -0.00000
   21         0.84120
   22        -0.00000
   23         0.00000
   24        -0.31799
   25         0.00000
   26         0.00000
   27        -0.00000
   28         0.00000
   29        -0.00316
   30         0.00000
   31        -0.00000
   32        -0.00000
   33         0.00000
   34         0.00000
   35         0.03032
   36        -0.00000
   37         0.00000
   38        -0.00000
   39         0.00000
   40         0.00000
   41         0.00000
   42        -0.13807
   43         0.00000
   44         0.00000
   45         0.08028
   46        -0.00000
   47        -0.00000
   48        -0.73129
   49         0.00000
   50        -0.00000
   51         0.00000
   52         0.00000
   53        -0.01854
   54         0.00000
   55        -0.00000
Sym=    11A   
Ene=          1.15880
Spin= Alpha
Occup=  0.00000
    1         0.00433
    2         0.00805
    3         0.02181
    4        -0.00356
    5         0.01338
    6        -0.31774
    7         2.36151
    8         0.02049
    9         0.00000
   10         0.00000
   11         0.03114
   12         0.00000
   13         0.00000
   14         0.27559
   15         0.00000
   16         0.00000
   17        -0.32078
   18         0.00000
   19         0.00000
   20         1.44280
   21         0.00000
   22         0.00000
   23        -0.65521
   24        -0.00000
   25        -0.00000
   26        -0.00217
   27         0.00081
   28         0.00136
   29        -0.00000
   30        -0.00000
   31        -0.00000
   32         0.03152
   33        -0.01630
   34        -0.01522
   35         0.00000
   36         0.00000
   37         0.00000
   38         0.06828
   39        -0.10104
   40        -1.62608
   41        -0.14592
   42        -0.00000
   43        -0.00000
   44        -0.34915
   45         0.00000
   46        -0.00000
   47         1.96968
   48        -0.00000
   49        -0.00000
   50         0.04003
   51        -0.02025
   52        -0.01978
   53        -0.00000
   54        -0.00000
   55        -0.00000
Sym=    12A   
Ene=          1.16722
Spin= Alpha
Occup=  0.00000
    1         0.00000
    2         0.00000
    3         0.00000
    4         0.00000
    5        -0.00000
    6        -0.00000
    7        -0.00000
    8        -0.00000
    9         0.00000
   10         0.03424
   11        -0.00000
   12         0.00000
   13         0.10223
   14        -0.00000
   15         0.00000
   16         0.33450
   17         0.00000
   18         0.00000
   19         0.06339
   20        -0.00000
   21         0.00000
   22         0.84731
   23         0.00000
   24        -0.00000
   25        -0.31290
   26         0.00000
   27         0.00000
   28        -0.00000
   29        -0.00000
   30        -0.00279
   31        -0.00000
   32        -0.00000
   33        -0.00000
   34         0.00000
   35         0.00000
   36         0.03089
   37        -0.00000
   38        -0.00000
   39         0.00000
   40         0.00000
   41         0.00000
   42        -0.00000
   43        -0.12404
   44         0.00000
   45         0.00000
   46         0.10139
   47        -0.00000
   48        -0.00000
   49        -0.73894
   50        -0.00000
   51         0.00000
   52         0.00000
   53        -0.00000
   54        -0.02029
   55         0.00000
Sym=    13A   
Ene=          1.29399
Spin= Alpha
Occup=  0.00000
    1         0.00000
    2         0.00000
    3         0.00000
    4        -0.00000
    5         0.00000
    6        -0.00000
    7         0.00000
    8        -0.00000
    9         0.01398
   10        -0.00000
   11        -0.00000
   12         0.05358
   13        -0.00000
   14         0.00000
   15         0.11325
   16        -0.00000
   17        -0.00000
   18         0.13775
   19        -0.00000
   20         0.00000
   21         0.19805
   22        -0.00000
   23         0.00000
   24        -0.78231
   25         0.00000
   26        -0.00000
   27        -0.00000
   28         0.00000
   29        -0.00227
   30         0.00000
   31        -0.00000
   32         0.00000
   33        -0.00000
   34        -0.00000
   35        -0.03036
   36         0.00000
   37         0.00000
   38         0.00000
   39         0.00000
   40        -0.00000
   41        -0.00000
   42        -0.35500
   43         0.00000
   44        -0.00000
   45        -0.98182
   46         0.00000
   47        -0.00000
   48         1.58531
   49        -0.00000
   50        -0.00000
   51         0.00000
   52        -0.00000
   53         0.00368
   54        -0.00000
   55         0.00000
Sym=    14A   
Ene=          1.30155
Spin= Alpha
Occup=  0.00000
    1         0.00000
    2         0.00000
    3         0.00000
    4        -0.00000
    5         0.00000
    6        -0.00000
    7         0.00000
    8        -0.00000
    9         0.00000
   10         0.01474
   11        -0.00000
   12         0.00000
   13         0.05627
   14        -0.00000
   15         0.00000
   16         0.11959
   17        -0.00000
   18         0.00000
   19         0.14121
   20         0.00000
   21         0.00000
   22         0.20943
   23         0.00000
   24        -0.00000
   25        -0.78417
   26        -0.00000
   27         0.00000
   28         0.00000
   29        -0.00000
   30        -0.00198
   31        -0.00000
   32         0.00000
   33        -0.00000
   34        -0.00000
   35        -0.00000
   36        -0.02944
   37        -0.00000
   38         0.00000
   39        -0.00000
   40        -0.00000
   41        -0.00000
   42        -0.00000
   43        -0.35440
   44         0.00000
   45        -0.00000
   46        -0.97186
   47        -0.00000
   48         0.00000
   49         1.57949
   50        -0.00000
   51         0.00000
   52         0.00000
   53         0.00000
   54         0.00220
   55         0.00000
Sym=    15A   
Ene=          1.31977
Spin= Alpha
Occup=  0.00000
    1         0.01924
    2         0.02888
    3         0.11892
    4        -0.07388
    5         0.19901
    6        -1.78859
    7         2.59438
    8         0.00074
    9        -0.00000
   10        -0.00000
   11         0.00104
   12        -0.00000
   13        -0.00000
   14         0.00928
   15        -0.00000
   16        -0.00000
   17        -0.03587
   18        -0.00000
   19        -0.00000
   20         0.39218
   21        -0.00000
   22         0.00000
   23         0.62243
   24         0.00000
   25         0.00000
   26        -0.02019
   27         0.00840
   28         0.01179
   29         0.00000
   30        -0.00000
   31         0.00000
   32         0.11670
   33        -0.05257
   34        -0.06412
   35         0.00000
   36         0.00000
   37        -0.00000
   38         0.02196
   39        -0.05939
   40        -1.26335
   41        -0.04935
   42         0.00000
   43         0.00000
   44         0.28734
   45         0.00000
   46         0.00000
   47        -0.27908
   48        -0.00000
   49        -0.00000
   50        -0.02994
   51         0.01532
   52         0.01462
   53         0.00000
   54         0.00000
   55         0.00000
Sym=    16A   
Ene=          1.51696
Spin= Alpha
Occup=  0.00000
    1         0.01529
    2         0.03130
    3         0.07050
    4         0.01074
    5        -0.06829
    6        -0.77266
    7        -0.77494
    8        -0.02803
    9        -0.00000
   10         0.00000
   11        -0.11004
   12         0.00000
   13         0.00000
   14        -0.21468
   15        -0.00000
   16         0.00000
   17        -0.37478
   18         0.00000
   19         0.00000
   20        -1.09412
   21        -0.00000
   22        -0.00000
   23        -0.01470
   24         0.00000
   25         0.00000
   26         0.03096
   27        -0.01639
   28        -0.01457
   29         0.00000
   30         0.00000
   31         0.00000
   32        -0.09786
   33         0.04214
   34         0.05572
   35         0.00000
   36        -0.00000
   37         0.00000
   38        -0.07472
   39         0.27792
   40         1.43685
   41        -0.44301
   42         0.00000
   43         0.00000
   44        -1.28620
   45         0.00000
   46         0.00000
   47         0.15004
   48        -0.00000
   49        -0.00000
   50        -0.01440
   51         0.00767
   52         0.00673
   53         0.00000
   54        -0.00000
   55         0.00000
Sym=    17A   
Ene=          1.74412
Spin= Alpha
Occup=  0.00000
    1        -0.00406
    2        -0.01218
    3        -0.00646
    4        -0.04449
    5         0.28346
    6        -0.57127
    7        -3.61628
    8         0.00831
    9         0.00000
   10        -0.00000
   11         0.01834
   12         0.00000
   13         0.00000
   14         0.11050
   15         0.00000
   16        -0.00000
   17        -0.04861
   18        -0.00000
   19         0.00000
   20        -1.52391
   21         0.00000
   22        -0.00000
   23        -0.99337
   24        -0.00000
   25         0.00000
   26         0.01102
   27        -0.00513
   28        -0.00589
   29        -0.00000
   30        -0.00000
   31        -0.00000
   32        -0.44570
   33         0.22752
   34         0.21819
   35        -0.00000
   36         0.00000
   37        -0.00000
   38         0.21698
   39        -1.93099
   40         5.77655
   41         0.03137
   42        -0.00000
   43        -0.00000
   44        -1.05304
   45        -0.00000
   46         0.00000
   47        -1.24380
   48         0.00000
   49        -0.00000
   50         0.06828
   51        -0.03250
   52        -0.03579
   53         0.00000
   54        -0.00000
   55         0.00000
Sym=    18A   
Ene=          1.82802
Spin= Alpha
Occup=  0.00000
    1        -0.00000
    2        -0.00000
    3        -0.00000
    4         0.00000
    5         0.00000
    6         0.00000
    7         0.00000
    8        -0.00000
    9        -0.02613
   10         0.00000
   11        -0.00000
   12        -0.18630
   13         0.00000
   14        -0.00000
   15        -0.02234
   16         0.00000
   17        -0.00000
   18        -1.39777
   19         0.00000
   20         0.00000
   21         2.45211
   22        -0.00000
   23        -0.00000
   24        -1.02175
   25         0.00000
   26        -0.00000
   27         0.00000
   28         0.00000
   29        -0.01115
   30         0.00000
   31        -0.00000
   32         0.00000
   33         0.00000
   34        -0.00000
   35        -0.01662
   36         0.00000
   37         0.00000
   38        -0.00000
   39        -0.00000
   40        -0.00000
   41        -0.00000
   42        -0.08800
   43         0.00000
   44         0.00000
   45        -0.23242
   46         0.00000
   47         0.00000
   48         0.17957
   49        -0.00000
   50        -0.00000
   51         0.00000
   52         0.00000
   53        -0.00048
   54         0.00000
   55         0.00000
Sym=    19A   
Ene=          1.84592
Spin= Alpha
Occup=  0.00000
    1        -0.00000
    2         0.00000
    3        -0.00000
    4         0.00000
    5        -0.00000
    6         0.00000
    7         0.00000
    8        -0.00000
    9        -0.00000
   10        -0.02619
   11        -0.00000
   12        -0.00000
   13        -0.18713
   14        -0.00000
   15        -0.00000
   16        -0.02114
   17        -0.00000
   18        -0.00000
   19        -1.39774
   20         0.00000
   21         0.00000
   22         2.44655
   23        -0.00000
   24        -0.00000
   25        -1.01540
   26        -0.00000
   27         0.00000
   28         0.00000
   29        -0.00000
   30        -0.01084
   31         0.00000
   32        -0.00000
   33        -0.00000
   34         0.00000
   35        -0.00000
   36        -0.02269
   37         0.00000
   38        -0.00000
   39        -0.00000
   40        -0.00000
   41        -0.00000
   42        -0.00000
   43        -0.08848
   44         0.00000
   45        -0.00000
   46        -0.22563
   47         0.00000
   48         0.00000
   49         0.17715
   50        -0.00000
   51        -0.00000
   52         0.00000
   53        -0.00000
   54        -0.00093
   55         0.00000
Sym=    20A   
Ene=          1.86235
Spin= Alpha
Occup=  0.00000
    1        -0.00528
    2        -0.00645
    3        -0.03814
    4         0.03526
    5        -0.11853
    6         0.53684
    7         1.14818
    8        -0.02287
    9         0.00000
   10         0.00000
   11        -0.16574
   12         0.00000
   13         0.00000
   14        -0.00612
   15         0.00000
   16        -0.00000
   17        -1.39992
   18         0.00000
   19         0.00000
   20         3.35794
   21        -0.00000
   22        -0.00000
   23        -0.88247
   24         0.00000
   25         0.00000
   26        -0.03473
   27         0.01776
   28         0.01697
   29         0.00000
   30         0.00000
   31        -0.00000
   32         0.02943
   33        -0.00091
   34        -0.02853
   35         0.00000
   36         0.00000
   37        -0.00000
   38         0.00511
   39        -0.25835
   40        -1.52716
   41        -0.01549
   42         0.00000
   43         0.00000
   44         0.40324
   45         0.00000
   46         0.00000
   47         0.71915
   48        -0.00000
   49        -0.00000
   50        -0.04322
   51         0.02320
   52         0.02001
   53         0.00000
   54        -0.00000
   55        -0.00000
Sym=    21A   
Ene=          2.01181
Spin= Alpha
Occup=  0.00000
    1         0.00148
    2         0.00407
    3         0.00377
    4         0.01140
    5        -0.06217
    6         0.05064
    7        -0.08609
    8         0.00027
    9         0.00000
   10        -0.00000
   11         0.00255
   12         0.00000
   13        -0.00000
   14        -0.00139
   15        -0.00000
   16         0.00000
   17         0.02558
   18         0.00000
   19        -0.00000
   20        -0.10461
   21        -0.00000
   22         0.00000
   23         0.01053
   24         0.00000
   25        -0.00000
   26         0.00043
   27         0.00498
   28        -0.00541
   29         0.00000
   30        -0.00000
   31        -0.00000
   32        -0.03526
   33         0.86754
   34        -0.83228
   35         0.00000
   36        -0.00000
   37        -0.00000
   38        -0.00375
   39         0.03978
   40         0.05777
   41         0.00222
   42        -0.00000
   43        -0.00000
   44        -0.05435
   45        -0.00000
   46        -0.00000
   47         0.00402
   48        -0.00000
   49         0.00000
   50        -0.00088
   51         0.08513
   52        -0.08425
   53        -0.00000
   54        -0.00000
   55        -0.00000
Sym=    22A   
Ene=          2.01191
Spin= Alpha
Occup=  0.00000
    1        -0.00000
    2        -0.00000
    3        -0.00000
    4         0.00000
    5         0.00000
    6         0.00000
    7         0.00000
    8        -0.00000
    9         0.00000
   10         0.00000
   11        -0.00000
   12         0.00000
   13         0.00000
   14         0.00000
   15        -0.00000
   16        -0.00000
   17        -0.00000
   18         0.00000
   19         0.00000
   20         0.00000
   21        -0.00000
   22        -0.00000
   23        -0.00000
   24         0.00000
   25         0.00000
   26         0.00000
   27         0.00000
   28        -0.00000
   29         0.00000
   30         0.00000
   31         0.00610
   32         0.00000
   33         0.00000
   34        -0.00000
   35         0.00000
   36         0.00000
   37         0.98211
   38         0.00000
   39        -0.00000
   40        -0.00000
   41        -0.00000
   42         0.00000
   43        -0.00000
   44         0.00000
   45         0.00000
   46        -0.00000
   47        -0.00000
   48        -0.00000
   49        -0.00000
   50         0.00000
   51         0.00000
   52        -0.00000
   53         0.00000
   54        -0.00000
   55         0.09791
Sym=    23A   
Ene=          2.06307
Spin= Alpha
Occup=  0.00000
    1         0.00000
    2         0.00000
    3         0.00000
    4         0.00000
    5        -0.00000