[Molden Format]
[Atoms] Angs
 C       1    4        0.0000000000        0.0000000000        0.0000000000
 C       2    6        1.5000000000        0.0000000000        0.0000000000
[GTO]
    1    0
 s        3    1.00
     30.1789000000      0.0658240000
      5.1896000000      0.2060210000
      1.0680000000     -0.0493600000
 s        1    1.00
      0.4002000000      1.0000000000
 s        1    1.00
      0.1351000000      1.0000000000
 p        2    1.00
      3.5409700000      0.1351450000
      0.8080800000      0.4301870000
 p        1    1.00
      0.2480000000      1.0000000000
 p        1    1.00
      0.0916000000      1.0000000000
 d        1    1.00
      0.8000000000      1.0000000000

    2    0
 s        5    1.00
  16371.0740000000      0.0002264183
   2426.9925000000      0.0017844680
    544.5441800000      0.0094901567
    150.8048700000      0.0396605150
     47.7081430000      0.1313402600
 s        1    1.00
     16.4572410000      1.0000000000
 s        1    1.00
      6.0845578000      1.0000000000
 s        1    1.00
      2.3824631000      1.0000000000
 s        1    1.00
      0.6619866000      1.0000000000
 s        1    1.00
      0.2469899700      1.0000000000
 s        1    1.00
      0.0949873000      1.0000000000
 p        2    1.00
     40.7904230000      0.0040969752
      9.5034633000      0.0275847660
 p        1    1.00
      2.9408357000      1.0000000000
 p        1    1.00
      1.0751115000      1.0000000000
 p        1    1.00
      0.4267024000      1.0000000000
 p        1    1.00
      0.1748192600      1.0000000000
 p        1    1.00
      0.0711305400      1.0000000000
 d        1    1.00
      1.4000000000      1.0000000000
 d        1    1.00
      0.3500000000      1.0000000000

[MO]
Sym=     1A   
Ene=         -9.40396
Spin= Alpha
Occup=  0.00000
    1        -0.00004
    2        -0.00015
    3        -0.00009
    4        -0.00003
    5        -0.00000
    6        -0.00000
    7        -0.00017
    8        -0.00000
    9         0.00000
   10        -0.00004
   11        -0.00000
   12        -0.00000
   13         0.00003
   14        -0.00001
   15        -0.00002
   16        -0.00000
   17        -0.00000
   18        -0.00000
   19         0.17653
   20         0.33893
   21         0.41270
   22         0.21112
   23         0.00523
   24         0.00080
   25        -0.00031
   26        -0.00052
   27        -0.00000
   28        -0.00000
   29        -0.00081
   30        -0.00000
   31        -0.00000
   32        -0.00003
   33         0.00000
   34        -0.00000
   35        -0.00009
   36        -0.00000
   37         0.00000
   38        -0.00022
   39         0.00000
   40        -0.00000
   41         0.00008
   42        -0.00000
   43         0.00000
   44         0.00024
   45         0.00003
   46        -0.00026
   47         0.00000
   48         0.00000
   49        -0.00000
   50         0.00007
   51        -0.00007
   52        -0.00000
   53        -0.00000
   54         0.00000
   55         0.00000
Sym=     2A   
Ene=          0.60859
Spin= Alpha
Occup=  1.00000
    1        -0.17715
    2         0.39471
    3         0.14600
    4         0.13550
    5        -0.00000
    6        -0.00000
    7         0.08012
    8        -0.00000
    9        -0.00000
   10        -0.03474
   11         0.00000
   12         0.00000
   13         0.01260
   14        -0.00561
   15        -0.00699
   16         0.00000
   17         0.00000
   18        -0.00000
   19        -0.02899
   20        -0.06149
   21        -0.11767
   22        -0.05370
   23         0.30711
   24         0.22546
   25         0.12470
   26        -0.01030
   27        -0.00000
   28        -0.00000
   29        -0.03606
   30        -0.00000
   31        -0.00000
   32        -0.08774
   33        -0.00000
   34        -0.00000
   35        -0.07716
   36        -0.00000
   37        -0.00000
   38        -0.03595
   39        -0.00000
   40        -0.00000
   41        -0.01845
   42        -0.00000
   43         0.00000
   44         0.01158
   45        -0.00470
   46        -0.00688
   47         0.00000
   48         0.00000
   49        -0.00000
   50         0.01226
   51        -0.00168
   52        -0.01058
   53        -0.00000
   54         0.00000
   55        -0.00000
Sym=     3A   
Ene=          0.86963
Spin= Alpha
Occup=  1.00000
    1        -0.16598
    2         0.42451
    3         0.17627
    4        -0.14755
    5        -0.00000
    6        -0.00000
    7        -0.00573
    8        -0.00000
    9        -0.00000
   10        -0.29382
   11         0.00000
   12         0.00000
   13        -0.01646
   14         0.00883
   15         0.00763
   16         0.00000
   17         0.00000
   18        -0.00000
   19         0.02849
   20         0.05994
   21         0.11938
   22         0.04756
   23        -0.28699
   24        -0.39328
   25         0.10636
   26        -0.00584
   27         0.00000
   28        -0.00000
   29        -0.02262
   30         0.00000
   31        -0.00000
   32        -0.03975
   33         0.00000
   34        -0.00000
   35        -0.07370
   36         0.00000
   37        -0.00000
   38         0.08543
   39        -0.00000
   40         0.00000
   41        -0.24305
   42         0.00000
   43        -0.00000
   44         0.00014
   45        -0.00136
   46         0.00122
   47        -0.00000
   48         0.00000
   49         0.00000
   50        -0.00831
   51        -0.00032
   52         0.00863
   53         0.00000
   54        -0.00000
   55         0.00000
Sym=     4A   
Ene=          0.97627
Spin= Alpha
Occup=  1.00000
    1         0.00000
    2        -0.00000
    3        -0.00000
    4         0.00000
    5         0.29728
    6        -0.00000
    7         0.00000
    8         0.21769
    9        -0.00000
   10        -0.00000
   11         0.15908
   12        -0.00000
   13         0.00000
   14        -0.00000
   15         0.00000
   16         0.02003
   17        -0.00000
   18        -0.00000
   19         0.00000
   20         0.00000
   21         0.00000
   22         0.00000
   23        -0.00000
   24        -0.00000
   25         0.00000
   26        -0.00000
   27         0.01678
   28        -0.00000
   29        -0.00000
   30         0.08167
   31        -0.00000
   32        -0.00000
   33         0.09108
   34        -0.00000
   35        -0.00000
   36         0.36096
   37        -0.00000
   38         0.00000
   39        -0.33478
   40         0.00000
   41        -0.00000
   42         0.64569
   43        -0.00000
   44         0.00000
   45        -0.00000
   46         0.00000
   47        -0.00718
   48        -0.00000
   49        -0.00000
   50         0.00000
   51        -0.00000
   52         0.00000
   53        -0.02343
   54         0.00000
   55         0.00000
Sym=     5A   
Ene=          0.98867
Spin= Alpha
Occup=  1.00000
    1        -0.00000
    2         0.00000
    3        -0.00000
    4        -0.00000
    5         0.00000
    6         0.31189
    7        -0.00000
    8         0.00000
    9         0.22854
   10        -0.00000
   11         0.00000
   12         0.16274
   13        -0.00000
   14         0.00000
   15        -0.00000
   16         0.00000
   17         0.01991
   18        -0.00000
   19        -0.00000
   20        -0.00000
   21        -0.00000
   22        -0.00000
   23         0.00000
   24        -0.00000
   25         0.00000
   26         0.00000
   27        -0.00000
   28         0.01583
   29         0.00000
   30         0.00000
   31         0.07887
   32         0.00000
   33        -0.00000
   34         0.08157
   35         0.00000
   36         0.00000
   37         0.35724
   38        -0.00000
   39        -0.00000
   40        -0.35790
   41        -0.00000
   42         0.00000
   43         0.65263
   44        -0.00000
   45         0.00000
   46         0.00000
   47        -0.00000
   48        -0.00754
   49        -0.00000
   50        -0.00000
   51        -0.00000
   52         0.00000
   53         0.00000
   54        -0.02101
   55        -0.00000
Sym=     6A   
Ene=          0.99355
Spin= Alpha
Occup=  1.00000
    1        -0.00488
    2         0.03083
    3        -0.49026
    4        -0.28187
    5         0.00000
    6        -0.00000
    7        -0.10986
    8        -0.00000
    9        -0.00000
   10        -0.79886
   11         0.00000
   12        -0.00000
   13        -0.01114
   14         0.00547
   15         0.00567
   16         0.00000
   17        -0.00000
   18        -0.00000
   19        -0.01257
   20        -0.02828
   21        -0.04752
   22        -0.03657
   23         0.18680
   24        -0.00053
   25         1.15943
   26         0.02382
   27         0.00000
   28        -0.00000
   29         0.09541
   30         0.00000
   31        -0.00000
   32         0.17509
   33         0.00000
   34        -0.00000
   35         0.32870
   36         0.00000
   37        -0.00000
   38        -0.20061
   39        -0.00000
   40         0.00000
   41         0.02848
   42         0.00000
   43        -0.00000
   44        -0.01108
   45         0.00605
   46         0.00503
   47        -0.00000
   48         0.00000
   49        -0.00000
   50        -0.00423
   51         0.00552
   52        -0.00129
   53        -0.00000
   54         0.00000
   55         0.00000
Sym=     7A   
Ene=          1.07358
Spin= Alpha
Occup=  1.00000
    1        -0.00000
    2         0.00000
    3         0.00000
    4        -0.00000
    5        -0.26290
    6         0.00000
    7        -0.00000
    8        -0.02038
    9        -0.00000
   10         0.00000
   11        -0.87020
   12         0.00000
   13        -0.00000
   14         0.00000
   15        -0.00000
   16        -0.00204
   17         0.00000
   18         0.00000
   19         0.00000
   20         0.00000
   21         0.00000
   22         0.00000
   23        -0.00000
   24         0.00000
   25        -0.00000
   26         0.00000
   27        -0.00741
   28         0.00000
   29         0.00000
   30         0.01638
   31        -0.00000
   32         0.00000
   33        -0.15765
   34         0.00000
   35         0.00000
   36         0.38906
   37        -0.00000
   38        -0.00000
   39        -1.06775
   40         0.00000
   41         0.00000
   42         1.85036
   43        -0.00000
   44         0.00000
   45         0.00000
   46        -0.00000
   47         0.01022
   48        -0.00000
   49        -0.00000
   50         0.00000
   51        -0.00000
   52        -0.00000
   53        -0.00533
   54         0.00000
   55         0.00000
Sym=     8A   
Ene=          1.08124
Spin= Alpha
Occup=  1.00000
    1        -0.00000
    2        -0.00000
    3         0.00000
    4        -0.00000
    5        -0.00000
    6        -0.26661
    7        -0.00000
    8        -0.00000
    9        -0.01717
   10         0.00000
   11        -0.00000
   12        -0.87262
   13         0.00000
   14        -0.00000
   15        -0.00000
   16        -0.00000
   17        -0.00138
   18         0.00000
   19         0.00000
   20         0.00000
   21         0.00000
   22         0.00000
   23        -0.00000
   24        -0.00000
   25        -0.00000
   26        -0.00000
   27        -0.00000
   28        -0.00684
   29         0.00000
   30         0.00000
   31         0.01881
   32        -0.00000
   33        -0.00000
   34        -0.15360
   35         0.00000
   36         0.00000
   37         0.39736
   38        -0.00000
   39        -0.00000
   40        -1.06636
   41         0.00000
   42         0.00000
   43         1.85201
   44         0.00000
   45        -0.00000
   46        -0.00000
   47         0.00000
   48         0.01021
   49         0.00000
   50         0.00000
   51        -0.00000
   52        -0.00000
   53        -0.00000
   54        -0.00673
   55        -0.00000
Sym=     9A   
Ene=          1.08875
Spin= Alpha
Occup=  1.00000
    1        -0.07442
    2        -0.11544
    3         1.69941
    4        -0.04161
    5         0.00000
    6         0.00000
    7        -0.26399
    8         0.00000
    9         0.00000
   10         0.65767
   11         0.00000
   12         0.00000
   13         0.01036
   14        -0.00493
   15        -0.00542
   16         0.00000
   17         0.00000
   18        -0.00000
   19         0.00814
   20         0.01751
   21         0.03348
   22         0.01705
   23        -0.10725
   24        -0.03552
   25        -1.14137
   26        -0.00218
   27         0.00000
   28         0.00000
   29         0.02790
   30         0.00000
   31        -0.00000
   32        -0.09966
   33         0.00000
   34         0.00000
   35         0.37442
   36        -0.00000
   37        -0.00000
   38        -0.87029
   39         0.00000
   40         0.00000
   41         1.97042
   42        -0.00000
   43        -0.00000
   44         0.00315
   45        -0.00199
   46        -0.00116
   47        -0.00000
   48        -0.00000
   49         0.00000
   50         0.00153
   51        -0.00207
   52         0.00054
   53        -0.00000
   54         0.00000
   55         0.00000
Sym=    10A   
Ene=          1.15123
Spin= Alpha
Occup=  0.00000
    1        -0.00000
    2         0.00000
    3         0.00000
    4        -0.00000
    5        -0.13807
    6         0.00000
    7        -0.00000
    8         0.08031
    9         0.00000
   10         0.00000
   11        -0.73137
   12         0.00000
   13        -0.00000
   14         0.00000
   15         0.00000
   16         0.01854
   17         0.00000
   18         0.00000
   19        -0.00000
   20        -0.00000
   21        -0.00000
   22         0.00000
   23         0.00000
   24         0.00000
   25        -0.00000
   26         0.00000
   27         0.03380
   28         0.00000
   29         0.00000
   30         0.10084
   31         0.00000
   32         0.00000
   33         0.33075
   34        -0.00000
   35        -0.00000
   36         0.06569
   37         0.00000
   38         0.00000
   39         0.84118
   40        -0.00000
   41        -0.00000
   42        -0.31789
   43         0.00000
   44         0.00000
   45        -0.00000
   46         0.00000
   47         0.00316
   48        -0.00000
   49        -0.00000
   50        -0.00000
   51         0.00000
   52         0.00000
   53        -0.03031
   54         0.00000
   55         0.00000
Sym=    11A   
Ene=          1.15881
Spin= Alpha
Occup=  0.00000
    1         0.06829
    2        -0.10102
    3        -1.62637
    4         0.14596
    5        -0.00000
    6         0.00000
    7         0.34922
    8         0.00000
    9        -0.00000
   10        -1.96974
   11        -0.00000
   12         0.00000
   13         0.04002
   14        -0.02025
   15        -0.01978
   16         0.00000
   17        -0.00000
   18         0.00000
   19         0.00433
   20         0.00805
   21         0.02181
   22        -0.00357
   23         0.01340
   24        -0.31780
   25         2.36169
   26        -0.02049
   27         0.00000
   28        -0.00000
   29        -0.03115
   30         0.00000
   31        -0.00000
   32        -0.27558
   33         0.00000
   34        -0.00000
   35         0.32070
   36         0.00000
   37        -0.00000
   38        -1.44265
   39         0.00000
   40        -0.00000
   41         0.65484
   42        -0.00000
   43         0.00000
   44        -0.00217
   45         0.00081
   46         0.00136
   47         0.00000
   48        -0.00000
   49        -0.00000
   50         0.03152
   51        -0.01630
   52        -0.01522
   53        -0.00000
   54         0.00000
   55         0.00000
Sym=    12A   
Ene=          1.16726
Spin= Alpha
Occup=  0.00000
    1         0.00000
    2        -0.00000
    3        -0.00000
    4         0.00000
    5        -0.00000
    6        -0.12403
    7         0.00000
    8         0.00000
    9         0.10143
   10        -0.00000
   11        -0.00000
   12        -0.73903
   13         0.00000
   14        -0.00000
   15        -0.00000
   16         0.00000
   17         0.02029
   18         0.00000
   19         0.00000
   20         0.00000
   21         0.00000
   22        -0.00000
   23         0.00000
   24        -0.00000
   25         0.00000
   26        -0.00000
   27         0.00000
   28         0.03424
   29        -0.00000
   30         0.00000
   31         0.10223
   32        -0.00000
   33         0.00000
   34         0.33448
   35         0.00000
   36         0.00000
   37         0.06338
   38        -0.00000
   39         0.00000
   40         0.84731
   41         0.00000
   42         0.00000
   43        -0.31279
   44        -0.00000
   45         0.00000
   46         0.00000
   47         0.00000
   48         0.00279
   49        -0.00000
   50         0.00000
   51        -0.00000
   52        -0.00000
   53        -0.00000
   54        -0.03089
   55        -0.00000
Sym=    13A   
Ene=          1.29400
Spin= Alpha
Occup=  0.00000
    1         0.00000
    2         0.00000
    3        -0.00000
    4         0.00000
    5        -0.35501
    6         0.00000
    7         0.00000
    8        -0.98182
    9         0.00000
   10         0.00000
   11         1.58527
   12        -0.00000
   13        -0.00000
   14         0.00000
   15        -0.00000
   16        -0.00368
   17         0.00000
   18         0.00000
   19         0.00000
   20         0.00000
   21         0.00000
   22        -0.00000
   23         0.00000
   24        -0.00000
   25         0.00000
   26         0.00000
   27         0.01398
   28        -0.00000
   29         0.00000
   30         0.05358
   31        -0.00000
   32        -0.00000
   33         0.11325
   34        -0.00000
   35         0.00000
   36         0.13775
   37        -0.00000
   38        -0.00000
   39         0.19807
   40        -0.00000
   41        -0.00000
   42        -0.78227
   43         0.00000
   44        -0.00000
   45        -0.00000
   46         0.00000
   47         0.00227
   48        -0.00000
   49        -0.00000
   50         0.00000
   51        -0.00000
   52        -0.00000
   53         0.03036
   54        -0.00000
   55         0.00000
Sym=    14A   
Ene=          1.30158
Spin= Alpha
Occup=  0.00000
    1         0.00000
    2         0.00000
    3        -0.00000
    4         0.00000
    5        -0.00000
    6        -0.35441
    7         0.00000
    8        -0.00000
    9        -0.97186
   10        -0.00000
   11         0.00000
   12         1.57944
   13         0.00000
   14        -0.00000
   15         0.00000
   16        -0.00000
   17        -0.00220
   18         0.00000
   19        -0.00000
   20        -0.00000
   21        -0.00000
   22         0.00000
   23        -0.00000
   24         0.00000
   25         0.00000
   26        -0.00000
   27         0.00000
   28         0.01475
   29        -0.00000
   30         0.00000
   31         0.05627
   32        -0.00000
   33         0.00000
   34         0.11959
   35         0.00000
   36         0.00000
   37         0.14121
   38        -0.00000
   39         0.00000
   40         0.20946
   41         0.00000
   42        -0.00000
   43        -0.78413
   44         0.00000
   45        -0.00000
   46        -0.00000
   47         0.00000
   48         0.00198
   49        -0.00000
   50        -0.00000
   51         0.00000
   52         0.00000
   53         0.00000
   54         0.02944
   55        -0.00000
Sym=    15A   
Ene=          1.31977
Spin= Alpha
Occup=  0.00000
    1         0.02196
    2        -0.05935
    3        -1.26349
    4         0.04934
    5         0.00000
    6        -0.00000
    7        -0.28742
    8         0.00000
    9        -0.00000
   10         0.27912
   11        -0.00000
   12         0.00000
   13        -0.02995
   14         0.01532
   15         0.01463
   16        -0.00000
   17        -0.00000
   18        -0.00000
   19         0.01924
   20         0.02888
   21         0.11892
   22        -0.07388
   23         0.19901
   24        -1.78858
   25         2.59442
   26        -0.00075
   27        -0.00000
   28         0.00000
   29        -0.00105
   30        -0.00000
   31        -0.00000
   32        -0.00928
   33        -0.00000
   34         0.00000
   35         0.03582
   36        -0.00000
   37        -0.00000
   38        -0.39219
   39        -0.00000
   40         0.00000
   41        -0.62250
   42         0.00000
   43        -0.00000
   44        -0.02019
   45         0.00840
   46         0.01179
   47        -0.00000
   48        -0.00000
   49        -0.00000
   50         0.11671
   51        -0.05259
   52        -0.06412
   53        -0.00000
   54         0.00000
   55         0.00000
Sym=    16A   
Ene=          1.51699
Spin= Alpha
Occup=  0.00000
    1        -0.07472
    2         0.27793
    3         1.43690
    4         0.44300
    5         0.00000
    6         0.00000
    7         1.28622
    8         0.00000
    9         0.00000
   10        -0.15000
   11        -0.00000
   12        -0.00000
   13        -0.01440
   14         0.00767
   15         0.00673
   16        -0.00000
   17        -0.00000
   18         0.00000
   19         0.01529
   20         0.03130
   21         0.07050
   22         0.01074
   23        -0.06827
   24        -0.77276
   25        -0.77491
   26         0.02803
   27        -0.00000
   28         0.00000
   29         0.11003
   30         0.00000
   31         0.00000
   32         0.21468
   33        -0.00000
   34        -0.00000
   35         0.37474
   36         0.00000
   37         0.00000
   38         1.09425
   39        -0.00000
   40        -0.00000
   41         0.01464
   42         0.00000
   43         0.00000
   44         0.03096
   45        -0.01639
   46        -0.01456
   47        -0.00000
   48        -0.00000
   49        -0.00000
   50        -0.09786
   51         0.04214
   52         0.05572
   53        -0.00000
   54         0.00000
   55         0.00000
Sym=    17A   
Ene=          1.74415
Spin= Alpha
Occup=  0.00000
    1         0.21698
    2        -1.93099
    3         5.77649
    4        -0.03139
    5        -0.00000
    6         0.00000
    7         1.05304
    8        -0.00000
    9        -0.00000
   10         1.24377
   11         0.00000
   12         0.00000
   13         0.06828
   14        -0.03250
   15        -0.03579
   16        -0.00000
   17        -0.00000
   18         0.00000
   19        -0.00406
   20        -0.01218
   21        -0.00646
   22        -0.04449
   23         0.28345
   24        -0.57128
   25        -3.61620
   26        -0.00831
   27         0.00000
   28         0.00000
   29        -0.01833
   30         0.00000
   31         0.00000
   32        -0.11050
   33         0.00000
   34         0.00000
   35         0.04862
   36        -0.00000
   37         0.00000
   38         1.52387
   39         0.00000
   40        -0.00000
   41         0.99335
   42        -0.00000
   43         0.00000
   44         0.01102
   45        -0.00512
   46        -0.00589
   47         0.00000
   48         0.00000
   49        -0.00000
   50        -0.44570
   51         0.22753
   52         0.21818
   53         0.00000
   54         0.00000
   55        -0.00000
Sym=    18A   
Ene=          1.82803
Spin= Alpha
Occup=  0.00000
    1        -0.00000
    2        -0.00000
    3        -0.00000
    4         0.00000
    5        -0.08799
    6         0.00000
    7        -0.00000
    8        -0.23242
    9        -0.00000
   10        -0.00000
   11         0.17957
   12         0.00000
   13        -0.00000
   14         0.00000
   15         0.00000
   16         0.00048
   17        -0.00000
   18         0.00000
   19        -0.00000
   20        -0.00000
   21        -0.00000
   22         0.00000
   23         0.00000
   24         0.00000
   25         0.00000
   26         0.00000
   27        -0.02613
   28        -0.00000
   29         0.00000
   30        -0.18630
   31        -0.00000
   32         0.00000
   33        -0.02233
   34         0.00000
   35         0.00000
   36        -1.39781
   37        -0.00000
   38        -0.00000
   39         2.45212
   40         0.00000
   41         0.00000
   42        -1.02175
   43        -0.00000
   44        -0.00000
   45         0.00000
   46         0.00000
   47         0.01115
   48         0.00000
   49        -0.00000
   50         0.00000
   51         0.00000
   52        -0.00000
   53         0.01663
   54         0.00000
   55         0.00000
Sym=    19A   
Ene=          1.84593
Spin= Alpha
Occup=  0.00000
    1         0.00000
    2         0.00000
    3         0.00000
    4        -0.00000
    5         0.00000
    6        -0.08846
    7         0.00000
    8         0.00000
    9        -0.22563
   10         0.00000
   11        -0.00000
   12         0.17715
   13         0.00000
   14        -0.00000
   15        -0.00000
   16         0.00000
   17         0.00092
   18         0.00000
   19         0.00000
   20         0.00000
   21         0.00000
   22        -0.00000
   23         0.00000
   24        -0.00000
   25        -0.00000
   26        -0.00000
   27         0.00000
   28        -0.02619
   29        -0.00000
   30         0.00000
   31        -0.18713
   32        -0.00000
   33         0.00000
   34        -0.02112
   35        -0.00000
   36         0.00000
   37        -1.39780
   38         0.00000
   39        -0.00000
   40         2.44655
   41        -0.00000
   42         0.00000
   43        -1.01540
   44         0.00000
   45        -0.00000
   46        -0.00000
   47        -0.00000
   48         0.01084
   49         0.00000
   50        -0.00000
   51        -0.00000
   52         0.00000
   53        -0.00000
   54         0.02272
   55         0.00000
Sym=    20A   
Ene=          1.86236
Spin= Alpha
Occup=  0.00000
    1        -0.00510
    2         0.25833
    3         1.52721
    4        -0.01551
    5        -0.00000
    6         0.00000
    7         0.40324
    8        -0.00000
    9         0.00000
   10         0.71916
   11         0.00000
   12        -0.00000
   13         0.04322
   14        -0.02320
   15        -0.02001
   16         0.00000
   17        -0.00000
   18        -0.00000
   19         0.00528
   20         0.00645
   21         0.03813
   22        -0.03525
   23         0.11854
   24        -0.53683
   25        -1.14822
   26        -0.02287
   27        -0.00000
   28         0.00000
   29        -0.16575
   30        -0.00000
   31         0.00000
   32        -0.00612
   33        -0.00000
   34         0.00000
   35        -1.39997
   36        -0.00000
   37         0.00000
   38         3.35797
   39         0.00000
   40        -0.00000
   41        -0.88246
   42        -0.00000
   43         0.00000
   44         0.03473
   45        -0.01776
   46        -0.01697
   47         0.00000
   48        -0.00000
   49         0.00000
   50        -0.02945
   51         0.00090
   52         0.02854
   53         0.00000
   54         0.00000
   55         0.00000
Sym=    21A   
Ene=          2.01182
Spin= Alpha
Occup=  0.00000
    1        -0.00376
    2         0.03980
    3         0.05772
    4        -0.00222
    5        -0.00000
    6        -0.00000
    7         0.05434
    8        -0.00000
    9        -0.00000
   10        -0.00402
   11        -0.00000
   12         0.00000
   13        -0.00088
   14         0.08513
   15        -0.08425
   16         0.00000
   17         0.00000
   18        -0.00000
   19         0.00148
   20         0.00407
   21         0.00377
   22         0.01139
   23        -0.06213
   24         0.05057
   25        -0.08602
   26        -0.00027
   27         0.00000
   28        -0.00000
   29        -0.00255
   30         0.00000
   31        -0.00000
   32         0.00139
   33        -0.00000
   34        -0.00000
   35        -0.02560
   36         0.00000
   37        -0.00000
   38         0.10462
   39        -0.00000
   40         0.00000
   41        -0.01056
   42         0.00000
   43        -0.00000
   44         0.00042
   45         0.00498
   46        -0.00540
   47        -0.00000
   48        -0.00000
   49        -0.00000
   50        -0.03525
   51         0.86754
   52        -0.83229
   53        -0.00000
   54        -0.00000
   55        -0.00000
Sym=    22A   
Ene=          2.01192
Spin= Alpha
Occup=  0.00000
    1         0.00000
    2        -0.00000
    3        -0.00000
    4         0.00000
    5         0.00000
    6        -0.00000
    7        -0.00000
    8         0.00000
    9        -0.00000
   10        -0.00000
   11        -0.00000
   12        -0.00000
   13         0.00000
   14         0.00000
   15        -0.00000
   16        -0.00000
   17         0.00000
   18         0.09790
   19        -0.00000
   20        -0.00000
   21        -0.00000
   22         0.00000
   23         0.00000
   24         0.00000
   25         0.00000
   26         0.00000
   27         0.00000
   28         0.00000
   29         0.00000
   30         0.00000
   31         0.00000
   32         0.00000
   33         0.00000
   34        -0.00000
   35         0.00000
   36         0.00000
   37         0.00000
   38        -0.00000
   39        -0.00000
   40        -0.00000
   41         0.00000
   42         0.00000
   43         0.00000
   44         0.00000
   45        -0.00000
   46        -0.00000
   47         0.00000
   48        -0.00000
   49         0.00609
   50         0.00000
   51         0.00000
   52        -0.00000
   53         0.00000
   54        -0.00000
   55         0.98212
Sym=    23A   
Ene=          2.06309
Spin= Alpha
Occup=  0.00000
    1        -0.00000
    2         0.00000
    3        -0.00000
    4         0.00000
    5         0.10197