[Molden Format]
[Atoms] Angs
 C       1    6        0.0000000000        0.0000000000        0.0000000000
 C       2    4        1.5000000000        0.0000000000        0.0000000000
[GTO]
    1    0
 s        5    1.00
  16371.0740000000      0.0002264183
   2426.9925000000      0.0017844680
    544.5441800000      0.0094901567
    150.8048700000      0.0396605150
     47.7081430000      0.1313402600
 s        1    1.00
     16.4572410000      1.0000000000
 s        1    1.00
      6.0845578000      1.0000000000
 s        1    1.00
      2.3824631000      1.0000000000
 s        1    1.00
      0.6619866000      1.0000000000
 s        1    1.00
      0.2469899700      1.0000000000
 s        1    1.00
      0.0949873000      1.0000000000
 s        0    1.00
 s        0    1.00
 s        0    1.00
 p        2    1.00
     40.7904230000      0.0040969752
      9.5034633000      0.0275847660
 p        1    1.00
      2.9408357000      1.0000000000
 p        1    1.00
      1.0751115000      1.0000000000
 p        1    1.00
      0.4267024000      1.0000000000
 p        1    1.00
      0.1748192600      1.0000000000
 p        1    1.00
      0.0711305400      1.0000000000
 p        0    1.00
 d        1    1.00
      1.4000000000      1.0000000000
 d        1    1.00
      0.3500000000      1.0000000000

    2    0
 s        3    1.00
     30.1789000000      0.0658240000
      5.1896000000      0.2060210000
      1.0680000000     -0.0493600000
 s        1    1.00
      0.4002000000      1.0000000000
 s        1    1.00
      0.1351000000      1.0000000000
 s        1    1.00
      1.2380000000      1.0000000000
 s        1    1.00
      0.8840000000      1.0000000000
 s        1    1.00
      0.6320000000      1.0000000000
 s        1    1.00
      0.4510000000      1.0000000000
 s        1    1.00
      0.3220000000      1.0000000000
 s        1    1.00
      0.2300000000      1.0000000000
 s        1    1.00
      0.1640000000      1.0000000000
 s        1    1.00
      0.1170000000      1.0000000000
 s        1    1.00
      0.0839000000      1.0000000000
 s        1    1.00
      0.0599000000      1.0000000000
 s        1    1.00
      0.0428000000      1.0000000000
 s        1    1.00
      0.0306000000      1.0000000000
 s        1    1.00
      0.0218000000      1.0000000000
 s        1    1.00
      0.0156000000      1.0000000000
 s        1    1.00
      0.0111000000      1.0000000000
 s        1    1.00
      0.0079000000      1.0000000000
 s        1    1.00
      0.0057000000      1.0000000000
 s        1    1.00
      0.0040000000      1.0000000000
 s        1    1.00
      0.0029000000      1.0000000000
 p        2    1.00
      3.5409700000      0.1351450000
      0.8080800000      0.4301870000
 p        1    1.00
      0.2480000000      1.0000000000
 p        1    1.00
      0.0916000000      1.0000000000
 p        1    1.00
      1.2380000000      1.0000000000
 p        1    1.00
      0.8840000000      1.0000000000
 p        1    1.00
      0.6320000000      1.0000000000
 p        1    1.00
      0.4510000000      1.0000000000
 p        1    1.00
      0.3220000000      1.0000000000
 p        1    1.00
      0.2300000000      1.0000000000
 p        1    1.00
      0.1640000000      1.0000000000
 p        1    1.00
      0.1170000000      1.0000000000
 p        1    1.00
      0.0839000000      1.0000000000
 p        1    1.00
      0.0599000000      1.0000000000
 p        1    1.00
      0.0428000000      1.0000000000
 p        1    1.00
      0.0306000000      1.0000000000
 p        1    1.00
      0.0218000000      1.0000000000
 p        1    1.00
      0.0156000000      1.0000000000
 p        1    1.00
      0.0111000000      1.0000000000
 p        1    1.00
      0.0079000000      1.0000000000
 p        1    1.00
      0.0057000000      1.0000000000
 p        1    1.00
      0.0040000000      1.0000000000
 p        1    1.00
      0.0029000000      1.0000000000
 d        1    1.00
      0.8000000000      1.0000000000
 d        1    1.00
      1.2380000000      1.0000000000
 d        1    1.00
      0.8840000000      1.0000000000
 d        1    1.00
      0.6320000000      1.0000000000
 d        1    1.00
      0.4510000000      1.0000000000
 d        1    1.00
      0.3220000000      1.0000000000
 d        1    1.00
      0.2300000000      1.0000000000
 d        1    1.00
      0.1640000000      1.0000000000
 d        1    1.00
      0.1170000000      1.0000000000
 d        1    1.00
      0.0839000000      1.0000000000
 d        1    1.00
      0.0599000000      1.0000000000
 d        1    1.00
      0.0428000000      1.0000000000
 d        1    1.00
      0.0306000000      1.0000000000
 d        1    1.00
      0.0218000000      1.0000000000
 d        1    1.00
      0.0156000000      1.0000000000
 d        1    1.00
      0.0111000000      1.0000000000
 d        1    1.00
      0.0079000000      1.0000000000
 d        1    1.00
      0.0057000000      1.0000000000
 d        1    1.00
      0.0040000000      1.0000000000
 d        1    1.00
      0.0029000000      1.0000000000

[MO]
Sym=     1A   
Ene=         -9.45581
Spin= Alpha
Occup=  0.50000
    1         0.17500
    2         0.32834
    3         0.43103
    4         0.20040
    5         0.01095
    6        -0.00307
    7         0.00065
    8         0.00000
    9         0.00000
   10         0.00000
   11         0.00034
   12         0.00000
   13        -0.00000
   14         0.00057
   15        -0.00000
   16        -0.00000
   17         0.00005
   18         0.00000
   19         0.00000
   20         0.00016
   21        -0.00000
   22        -0.00000
   23        -0.00039
   24         0.00000
   25         0.00000
   26         0.00014
   27        -0.00000
   28        -0.00000
   29         0.00000
   30         0.00000
   31         0.00000
   32         0.00004
   33        -0.00002
   34        -0.00002
   35         0.00000
   36         0.00000
   37        -0.00000
   38        -0.00005
   39         0.00002
   40         0.00002
   41        -0.00000
   42        -0.00000
   43         0.00000
   44        -0.00004
   45         0.00014
   46         0.00014
   47         0.00000
   48         0.00000
   49         0.00000
   50         0.00000
   51         0.00000
   52         0.00000
   53         0.00000
   54         0.00000
   55         0.00000
   56         0.00000
   57         0.00000
   58         0.00000
   59         0.00000
   60         0.00000
   61         0.00000
   62         0.00000
   63         0.00000
   64         0.00000
   65         0.00000
   66         0.00001
   67         0.00000
   68         0.00000
   69        -0.00017
   70        -0.00000
   71        -0.00000
   72        -0.00011
   73         0.00000
   74         0.00000
   75         0.00000
   76         0.00000
   77         0.00000
   78         0.00000
   79         0.00000
   80         0.00000
   81         0.00000
   82         0.00000
   83         0.00000
   84         0.00000
   85         0.00000
   86         0.00000
   87         0.00000
   88         0.00000
   89         0.00000
   90         0.00000
   91         0.00000
   92         0.00000
   93         0.00000
   94         0.00000
   95         0.00000
   96         0.00000
   97         0.00000
   98         0.00000
   99         0.00000
  100         0.00000
  101         0.00000
  102         0.00000
  103         0.00000
  104         0.00000
  105         0.00000
  106         0.00000
  107         0.00000
  108         0.00000
  109         0.00000
  110         0.00000
  111         0.00000
  112         0.00000
  113         0.00000
  114         0.00000
  115         0.00000
  116         0.00000
  117         0.00000
  118         0.00000
  119         0.00000
  120         0.00000
  121         0.00000
  122         0.00000
  123         0.00000
  124         0.00000
  125         0.00000
  126         0.00000
  127         0.00000
  128         0.00000
  129         0.00000
  130         0.00000
  131         0.00000
  132        -0.00003
  133         0.00002
  134         0.00002
  135        -0.00000
  136        -0.00000
  137        -0.00000
  138         0.00000
  139         0.00000
  140         0.00000
  141         0.00000
  142         0.00000
  143         0.00000
  144         0.00000
  145         0.00000
  146         0.00000
  147         0.00000
  148         0.00000
  149         0.00000
  150         0.00000
  151         0.00000
  152         0.00000
  153         0.00000
  154         0.00000
  155         0.00000
  156         0.00000
  157         0.00000
  158         0.00000
  159         0.00000
  160         0.00000
  161         0.00000
  162         0.00000
  163         0.00000
  164         0.00000
  165         0.00000
  166         0.00000
  167         0.00000
  168         0.00000
  169         0.00000
  170         0.00000
  171         0.00000
  172         0.00000
  173         0.00000
  174         0.00000
  175         0.00000
  176         0.00000
  177         0.00000
  178         0.00000
  179         0.00000
  180         0.00000
  181         0.00000
  182         0.00000
  183         0.00000
  184         0.00000
  185         0.00000
  186         0.00000
  187         0.00000
  188         0.00000
  189         0.00000
  190         0.00000
  191         0.00000
  192         0.00000
  193         0.00000
  194         0.00000
  195         0.00000
  196         0.00000
  197         0.00000
  198         0.00000
  199         0.00000
  200         0.00000
  201         0.00000
  202         0.00000
  203         0.00000
  204         0.00000
  205         0.00000
  206         0.00000
  207         0.00000
  208         0.00000
  209         0.00000
  210         0.00000
  211         0.00000
  212         0.00000
  213         0.00000
  214         0.00000
  215         0.00000
  216         0.00000
  217         0.00000
  218         0.00000
  219         0.00000
  220         0.00000
  221         0.00000
  222         0.00000
  223         0.00000
  224         0.00000
  225         0.00000
  226         0.00000
  227         0.00000
  228         0.00000
  229         0.00000
  230         0.00000
  231         0.00000
  232         0.00000
  233         0.00000
  234         0.00000
  235         0.00000
  236         0.00000
  237         0.00000
  238         0.00000
  239         0.00000
  240         0.00000
  241         0.00000
  242         0.00000
  243         0.00000
  244         0.00000
  245         0.00000
  246         0.00000
  247         0.00000
  248         0.00000
  249         0.00000
  250         0.00000
  251         0.00000
Sym=     2A   
Ene=          0.14692
Spin= Alpha
Occup=  0.00000
    1        -0.00000
    2         0.00004
    3        -0.00012
    4        -0.00041
    5         0.00063
    6         0.00144
    7        -0.03991
    8        -0.00000
    9         0.00000
   10         0.00000
   11        -0.00011
   12        -0.00000
   13         0.00000
   14         0.00082
   15         0.00000
   16        -0.00000
   17        -0.00249
   18        -0.00000
   19         0.00000
   20         0.00509
   21         0.00000
   22        -0.00000
   23        -0.00871
   24        -0.00000
   25         0.00000
   26        -0.00779
   27         0.00000
   28        -0.00000
   29        -0.00000
   30         0.00000
   31         0.00000
   32         0.00062
   33        -0.00031
   34        -0.00031
   35         0.00000
   36        -0.00000
   37        -0.00000
   38        -0.00032
   39         0.00016
   40         0.00016
   41        -0.00000
   42         0.00000
   43         0.00000
   44        -0.00037
   45        -0.17932
   46        -0.27751
   47         0.03681
   48        -0.15692
   49         0.27015
   50        -0.07973
   51        -0.04070
   52         0.35356
   53        -0.08521
   54        -0.11636
   55         0.52871
   56        -0.03502
   57        -0.57449
   58         0.41501
   59         0.43199
   60        -0.71751
   61        -0.12400
   62         0.81458
   63        -0.22073
   64        -0.58081
   65         0.38294
   66        -0.01205
   67         0.00000
   68        -0.00000
   69         0.53030
   70         0.00000
   71         0.00000
   72         0.23976
   73         0.00000
   74        -0.00000
   75         0.12857
   76        -0.00000
   77         0.00000
   78        -0.56006
   79         0.00000
   80        -0.00000
   81         1.24868
   82        -0.00000
   83         0.00000
   84        -1.68175
   85         0.00000
   86        -0.00000
   87         1.21421
   88        -0.00000
   89         0.00000
   90        -0.42218
   91         0.00000
   92        -0.00000
   93        -1.73009
   94        -0.00000
   95         0.00000
   96         2.47278
   97         0.00000
   98         0.00000
   99        -1.42023
  100        -0.00000
  101        -0.00000
  102        -1.78671
  103        -0.00000
  104         0.00000
  105         4.06324
  106         0.00000
  107        -0.00000
  108        -2.81505
  109         0.00000
  110        -0.00000
  111        -2.23168
  112        -0.00000
  113         0.00000
  114         6.96096
  115         0.00000
  116        -0.00000
  117        -5.28256
  118         0.00000
  119         0.00000
  120        -4.54325
  121        -0.00000
  122         0.00000
  123        13.93052
  124         0.00000
  125        -0.00000
  126       -13.54801
  127        -0.00000
  128         0.00000
  129         5.36997
  130         0.00000
  131        -0.00000
  132         5.15887
  133        -2.55882
  134        -2.60005
  135         0.00000
  136        -0.00000
  137         0.00000
  138         0.25546
  139        -0.12442
  140        -0.13104
  141         0.00000
  142        -0.00000
  143         0.00000
  144        -3.83871
  145         1.89064
  146         1.94808
  147        -0.00000
  148         0.00000
  149        -0.00000
  150        -1.45180
  151         0.76055
  152         0.69124
  153        -0.00000
  154        -0.00000
  155        -0.00000
  156        -1.82916
  157         0.82241
  158         1.00675
  159        -0.00000
  160         0.00000
  161        -0.00000
  162         5.16027
  163        -2.42317
  164        -2.73710
  165         0.00000
  166        -0.00000
  167         0.00000
  168        -8.24403
  169         3.91847
  170         4.32556
  171        -0.00000
  172         0.00000
  173        -0.00000
  174         9.80462
  175        -4.70752
  176        -5.09710
  177         0.00000
  178        -0.00000
  179         0.00000
  180        -8.43600
  181         4.12505
  182         4.31096
  183        -0.00000
  184         0.00000
  185        -0.00000
  186         3.03801
  187        -1.63989
  188        -1.39811
  189         0.00000
  190        -0.00000
  191         0.00000
  192         5.99306
  193        -2.57965
  194        -3.41341
  195        -0.00000
  196        -0.00000
  197         0.00000
  198       -16.04792
  199         7.32748
  200         8.72044
  201        -0.00000
  202         0.00000
  203        -0.00000
  204        22.37830
  205       -10.40118
  206       -11.97712
  207         0.00000
  208        -0.00000
  209         0.00000
  210       -19.38124
  211         9.18760
  212        10.19364
  213        -0.00000
  214         0.00000
  215        -0.00000
  216         2.67519
  217        -1.61469
  218        -1.06050
  219         0.00000
  220         0.00000
  221         0.00000
  222        26.52159
  223       -11.80263
  224       -14.71897
  225         0.00000
  226        -0.00000
  227         0.00000
  228       -57.68549
  229        26.22751
  230        31.45798
  231        -0.00000
  232         0.00000
  233        -0.00000
  234        67.12486
  235       -30.72777
  236       -36.39710
  237         0.00000
  238        -0.00000
  239         0.00000
  240       -47.74024
  241        21.93670
  242        25.80354
  243        -0.00000
  244         0.00000
  245        -0.00000
  246        17.12843
  247        -7.88693
  248        -9.24150
  249         0.00000
  250        -0.00000
  251         0.00000
Sym=     3A   
Ene=          0.14747
Spin= Alpha
Occup=  0.00000
    1         0.00000
    2        -0.00000
    3         0.00000
    4         0.00000
    5         0.00000
    6        -0.00000
    7         0.00000
    8        -0.00000
    9         0.00000
   10         0.00000
   11         0.00000
   12        -0.00000
   13         0.00000
   14        -0.00000
   15         0.00000
   16        -0.00000
   17         0.00000
   18        -0.00000
   19         0.00000
   20        -0.00000
   21         0.00000
   22        -0.00000
   23         0.00000
   24        -0.00000
   25         0.00000
   26         0.00000
   27         0.00000
   28        -0.00000
   29        -0.00000
   30        -0.00000
   31        -0.00000
   32        -0.00000
   33         0.00000
   34         0.00000
   35         0.00000
   36        -0.00000
   37        -0.00001
   38         0.00000
   39        -0.00000
   40        -0.00000
   41        -0.00000
   42         0.00000
   43         0.00000
   44         0.00000
   45         0.00000
   46         0.00000
   47        -0.00000
   48         0.00000
   49        -0.00000
   50         0.00000
   51         0.00000
   52        -0.00000
   53         0.00000
   54        -0.00000
   55        -0.00000
   56         0.00000
   57         0.00000
   58        -0.00000
   59         0.00000
   60         0.00000
   61        -0.00000
   62        -0.00000
   63         0.00000
   64        -0.00000
   65         0.00000
   66         0.00000
   67        -0.00000
   68         0.00000
   69        -0.00000
   70         0.00000
   71        -0.00000
   72         0.00000
   73         0.00000
   74        -0.00000
   75        -0.00000
   76         0.00000
   77        -0.00000
   78         0.00000
   79        -0.00000
   80         0.00000
   81        -0.00000
   82         0.00000
   83        -0.00000
   84         0.00000
   85        -0.00000
   86         0.00000
   87        -0.00000
   88         0.00000
   89        -0.00000
   90         0.00000
   91        -0.00000
   92         0.00000
   93         0.00000
   94        -0.00000
   95         0.00000
   96        -0.00000
   97         0.00000
   98        -0.00000
   99         0.00000
  100        -0.00000
  101         0.00000
  102         0.00000
  103        -0.00000
  104         0.00000
  105        -0.00000
  106         0.00000
  107        -0.00001
  108         0.00000
  109        -0.00000
  110         0.00000
  111         0.00000
  112        -0.00000
  113         0.00000
  114        -0.00000
  115         0.00000
  116        -0.00001
  117         0.00000
  118        -0.00000
  119         0.00001
  120         0.00000
  121        -0.00000
  122         0.00001
  123        -0.00000
  124         0.00001
  125        -0.00002
  126         0.00000
  127        -0.00001
  128         0.00002
  129        -0.00000
  130         0.00000
  131        -0.00001
  132        -0.00000
  133         0.00000
  134        -0.00000
  135         0.00000
  136        -0.00001
  137         5.57147
  138        -0.00000
  139         0.00000
  140        -0.00000
  141         0.00000
  142        -0.00000
  143         0.27236
  144         0.00000
  145        -0.00000
  146         0.00000
  147        -0.00000
  148         0.00000
  149        -4.12273
  150         0.00000
  151        -0.00000
  152         0.00000
  153        -0.00000
  154         0.00000
  155        -1.64339
  156         0.00000
  157        -0.00000
  158         0.00000
  159        -0.00000
  160         0.00000
  161        -1.81407
  162        -0.00000
  163         0.00000
  164        -0.00000
  165         0.00000
  166        -0.00001
  167         5.33377
  168         0.00000
  169        -0.00000
  170         0.00000
  171        -0.00000
  172         0.00001
  173        -8.65984
  174        -0.00000
  175         0.00000
  176        -0.00000
  177         0.00000
  178        -0.00001
  179        10.46329
  180         0.00000
  181        -0.00000
  182         0.00000
  183        -0.00000
  184         0.00001
  185        -9.21550
  186        -0.00000
  187         0.00000
  188        -0.00000
  189         0.00000
  190        -0.00001
  191         3.63660
  192        -0.00000
  193         0.00000
  194        -0.00000
  195         0.00000
  196        -0.00001
  197         5.92459
  198         0.00000
  199        -0.00001
  200         0.00001
  201        -0.00001
  202         0.00002
  203       -16.74583
  204        -0.00000
  205         0.00001
  206        -0.00001
  207         0.00001
  208        -0.00003
  209        23.73864
  210         0.00000
  211        -0.00001
  212         0.00001
  213        -0.00001
  214         0.00003
  215       -20.84411
  216        -0.00000
  217         0.00000
  218        -0.00000
  219         0.00000
  220        -0.00001
  221         3.32013
  222        -0.00000
  223         0.00001
  224        -0.00001
  225         0.00001
  226        -0.00003
  227        27.52847
  228         0.00000
  229        -0.00003
  230         0.00002
  231        -0.00003
  232         0.00007
  233       -60.44449
  234        -0.00000
  235         0.00003
  236        -0.00003
  237         0.00003
  238        -0.00008
  239        70.38233
  240         0.00000
  241        -0.00002
  242         0.00002
  243        -0.00003
  244         0.00006
  245       -49.96294
  246        -0.00000
  247         0.00001
  248        -0.00001
  249         0.00001
  250        -0.00002
  251        17.87874
Sym=     4A   
Ene=          0.14750
Spin= Alpha
Occup=  0.00000
    1         0.00000
    2        -0.00000
    3         0.00001
    4        -0.00002
    5         0.00009
    6        -0.00037
    7         0.00090
    8         0.00000
    9        -0.00000
   10        -0.00000
   11        -0.00000
   12         0.00000
   13        -0.00000
   14         0.00001
   15        -0.00000
   16         0.00000
   17        -0.00002
   18         0.00000
   19        -0.00000
   20         0.00006
   21         0.00000
   22         0.00000
   23        -0.00028
   24        -0.00000
   25        -0.00000
   26         0.00051
   27         0.00000
   28         0.00000
   29         0.00000
   30        -0.00000
   31        -0.00000
   32        -0.00001
   33        -0.00001
   34         0.00002
   35        -0.00000
   36         0.00000
   37         0.00000
   38        -0.00002
   39         0.00001
   40         0.00001
   41         0.00000
   42        -0.00000
   43        -0.00000
   44         0.00010
   45         0.05289
   46         0.09262
   47        -0.01031
   48         0.04429
   49        -0.07788
   50         0.02714
   51         0.00453
   52        -0.10739
   53         0.04403
   54         0.00768
   55        -0.17869
   56         0.08674
   57         0.15132
   58        -0.23333
   59        -0.00178
   60         0.29768
   61        -0.24376
   62        -0.17959
   63         0.48193
   64        -0.37916
   65         0.12111
   66         0.00085
   67        -0.00000
   68        -0.00000
   69        -0.01121
   70        -0.00000
   71        -0.00000
   72         0.02950
   73        -0.00000
   74        -0.00000
   75        -0.00965
   76         0.00000
   77         0.00000
   78         0.04373
   79        -0.00000
   80        -0.00000
   81        -0.10337
   82         0.00000
   83         0.00000
   84         0.15507
   85        -0.00000
   86        -0.00000
   87        -0.15039
   88         0.00000
   89         0.00000
   90         0.07681
   91        -0.00000
   92         0.00000
   93         0.07313
   94         0.00000
   95        -0.00000
   96        -0.18913
   97         0.00000
   98        -0.00000
   99         0.13876
  100         0.00000
  101         0.00000
  102        -0.00540
  103         0.00000
  104        -0.00000
  105        -0.17410
  106        -0.00000
  107         0.00000
  108         0.21960
  109        -0.00000
  110         0.00000
  111        -0.05242
  112         0.00000
  113        -0.00000
  114        -0.20491
  115        -0.00000
  116         0.00000
  117         0.28620
  118        -0.00000
  119        -0.00000
  120        -0.03556
  121         0.00000
  122        -0.00000
  123        -0.31524
  124        -0.00000
  125         0.00000
  126         0.39108
  127         0.00000
  128        -0.00000
  129        -0.16838
  130        -0.00000
  131         0.00000
  132        -0.05432
  133         4.91804
  134        -4.86372
  135        -0.00000
  136         0.00000
  137        -0.00000
  138        -0.00317
  139         0.23897
  140        -0.23580
  141        -0.00000
  142         0.00000
  143        -0.00000
  144         0.04374
  145        -3.63124
  146         3.58750
  147         0.00000
  148        -0.00000
  149         0.00000
  150         0.00328
  151        -1.47279
  152         1.46950
  153         0.00000
  154        -0.00000
  155         0.00000
  156         0.04959
  157        -1.56009
  158         1.51050
  159         0.00000
  160        -0.00000
  161         0.00000
  162        -0.11348
  163         4.65263
  164        -4.53915
  165        -0.00000
  166         0.00000
  167        -0.00000
  168         0.17854
  169        -7.59283
  170         7.41429
  171         0.00000
  172        -0.00000
  173         0.00000
  174        -0.21495
  175         9.21797
  176        -9.00303
  177        -0.00000
  178         0.00000
  179        -0.00001
  180         0.18112
  181        -8.17857
  182         7.99745
  183         0.00000
  184        -0.00000
  185         0.00000
  186        -0.03330
  187         3.32502
  188        -3.29173
  189        -0.00000
  190         0.00000
  191        -0.00000
  192        -0.23505
  193         5.06927
  194        -4.83422
  195        -0.00000
  196         0.00000
  197        -0.00000
  198         0.55637
  199       -14.63592
  200        14.07955
  201         0.00000
  202        -0.00000
  203         0.00001
  204        -0.77086
  205        20.90193
  206       -20.13106
  207        -0.00000
  208         0.00000
  209        -0.00001
  210         0.66198
  211       -18.50018
  212        17.83820
  213         0.00000
  214        -0.00000
  215         0.00001
  216        -0.03255
  217         3.17906
  218        -3.14650
  219         0.00000
  220         0.00000
  221        -0.00000
  222        -1.11008
  223        23.98865
  224       -22.87856
  225        -0.00000
  226         0.00000
  227        -0.00001
  228         2.37345
  229       -53.10514
  230        50.73168
  231         0.00000
  232        -0.00000
  233         0.00003
  234        -2.77892
  235        62.02594
  236       -59.24702
  237        -0.00000
  238         0.00000
  239        -0.00003
  240         1.99488
  241       -44.11588
  242        42.12100
  243         0.00000
  244        -0.00000
  245         0.00002
  246        -0.72106
  247        15.80461
  248       -15.08354
  249        -0.00000
  250         0.00000
  251        -0.00001
Sym=     5A   
Ene=          0.15002
Spin= Alpha
Occup=  0.00000
    1         0.00000
    2        -0.00000
    3         0.00000
    4        -0.00000
    5         0.00000
    6        -0.00000
    7         0.00000
    8         0.00000
    9        -0.00000
   10         0.00000
   11        -0.00000
   12         0.00000
   13         0.00000
   14         0.00000
   15        -0.00001
   16        -0.00000
   17        -0.00000
   18        -0.00033
   19         0.00000
   20        -0.00000
   21         0.00077
   22        -0.00000
   23        -0.00000
   24        -0.00084
   25         0.00000
   26         0.00000
   27         0.00075
   28        -0.00000
   29         0.00000
   30        -0.00000
   31         0.00000
   32         0.00000
   33        -0.00000
   34        -0.00000
   35         0.00002
   36        -0.00000
   37        -0.00000
   38        -0.00000
   39         0.00000
   40         0.00000
   41         0.00016
   42         0.00000
   43         0.00000
   44         0.00000
   45        -0.00000
   46        -0.00000
   47        -0.00000
   48         0.00000
   49        -0.00000
   50         0.00000
   51         0.00000
   52        -0.00000
   53         0.00000
   54         0.00000
   55        -0.00000
   56         0.00000
   57         0.00000
   58         0.00000
   59        -0.00000
   60         0.00000
   61         0.00000
   62        -0.00000
   63         0.00000
   64         0.00000
   65        -0.00000
   66         0.00000
   67        -0.01361
   68        -0.00000
   69        -0.00000
   70         0.68934
   71        -0.00000
   72        -0.00000
   73         0.42631
   74        -0.00000
   75        -0.00000
   76         0.14577
   77         0.00000
   78         0.00000
   79        -0.63519
   80        -0.00000
   81        -0.00000
   82         1.41060
   83         0.00000
   84         0.00000
   85        -1.86864
   86        -0.00000
   87        -0.00000
   88         1.25223
   89         0.00000
   90         0.00000
   91        -0.37229
   92         0.00000
   93         0.00000
   94        -2.15394
   95        -0.00000
   96        -0.00000
   97         2.85665
   98         0.00000
   99         0.00000
  100        -1.56095
  101         0.00000
  102         0.00000
  103        -2.41776
  104        -0.00000
  105        -0.00000
  106         5.01715
  107         0.00000
  108         0.00000
  109        -3.22476
  110         0.00000
  111         0.00000
  112        -3.10656
  113        -0.00000