[Molden Format]
[Atoms] Angs
 C       1    4        0.0000000000        0.0000000000        0.0000000000
 C       2    6        1.5000000000        0.0000000000        0.0000000000
[GTO]
    1    0
 s        3    1.00
     30.1789000000      0.0658240000
      5.1896000000      0.2060210000
      1.0680000000     -0.0493600000
 s        1    1.00
      0.4002000000      1.0000000000
 s        1    1.00
      0.1351000000      1.0000000000
 s        0    1.00
 s        0    1.00
 s        0    1.00
 p        2    1.00
      3.5409700000      0.1351450000
      0.8080800000      0.4301870000
 p        1    1.00
      0.2480000000      1.0000000000
 p        1    1.00
      0.0916000000      1.0000000000
 p        0    1.00
 d        1    1.00
      0.8000000000      1.0000000000

    2    0
 s        5    1.00
  16371.0740000000      0.0002264183
   2426.9925000000      0.0017844680
    544.5441800000      0.0094901567
    150.8048700000      0.0396605150
     47.7081430000      0.1313402600
 s        1    1.00
     16.4572410000      1.0000000000
 s        1    1.00
      6.0845578000      1.0000000000
 s        1    1.00
      2.3824631000      1.0000000000
 s        1    1.00
      0.6619866000      1.0000000000
 s        1    1.00
      0.2469899700      1.0000000000
 s        1    1.00
      0.0949873000      1.0000000000
 s        1    1.00
      1.2380000000      1.0000000000
 s        1    1.00
      0.8840000000      1.0000000000
 s        1    1.00
      0.6320000000      1.0000000000
 s        1    1.00
      0.4510000000      1.0000000000
 s        1    1.00
      0.3220000000      1.0000000000
 s        1    1.00
      0.2300000000      1.0000000000
 s        1    1.00
      0.1640000000      1.0000000000
 s        1    1.00
      0.1170000000      1.0000000000
 s        1    1.00
      0.0839000000      1.0000000000
 s        1    1.00
      0.0599000000      1.0000000000
 s        1    1.00
      0.0428000000      1.0000000000
 s        1    1.00
      0.0306000000      1.0000000000
 s        1    1.00
      0.0218000000      1.0000000000
 s        1    1.00
      0.0156000000      1.0000000000
 s        1    1.00
      0.0111000000      1.0000000000
 s        1    1.00
      0.0079000000      1.0000000000
 s        1    1.00
      0.0057000000      1.0000000000
 s        1    1.00
      0.0040000000      1.0000000000
 s        1    1.00
      0.0029000000      1.0000000000
 p        2    1.00
     40.7904230000      0.0040969752
      9.5034633000      0.0275847660
 p        1    1.00
      2.9408357000      1.0000000000
 p        1    1.00
      1.0751115000      1.0000000000
 p        1    1.00
      0.4267024000      1.0000000000
 p        1    1.00
      0.1748192600      1.0000000000
 p        1    1.00
      0.0711305400      1.0000000000
 p        1    1.00
      1.2380000000      1.0000000000
 p        1    1.00
      0.8840000000      1.0000000000
 p        1    1.00
      0.6320000000      1.0000000000
 p        1    1.00
      0.4510000000      1.0000000000
 p        1    1.00
      0.3220000000      1.0000000000
 p        1    1.00
      0.2300000000      1.0000000000
 p        1    1.00
      0.1640000000      1.0000000000
 p        1    1.00
      0.1170000000      1.0000000000
 p        1    1.00
      0.0839000000      1.0000000000
 p        1    1.00
      0.0599000000      1.0000000000
 p        1    1.00
      0.0428000000      1.0000000000
 p        1    1.00
      0.0306000000      1.0000000000
 p        1    1.00
      0.0218000000      1.0000000000
 p        1    1.00
      0.0156000000      1.0000000000
 p        1    1.00
      0.0111000000      1.0000000000
 p        1    1.00
      0.0079000000      1.0000000000
 p        1    1.00
      0.0057000000      1.0000000000
 p        1    1.00
      0.0040000000      1.0000000000
 p        1    1.00
      0.0029000000      1.0000000000
 d        1    1.00
      1.4000000000      1.0000000000
 d        1    1.00
      0.3500000000      1.0000000000
 d        1    1.00
      1.2380000000      1.0000000000
 d        1    1.00
      0.8840000000      1.0000000000
 d        1    1.00
      0.6320000000      1.0000000000
 d        1    1.00
      0.4510000000      1.0000000000
 d        1    1.00
      0.3220000000      1.0000000000
 d        1    1.00
      0.2300000000      1.0000000000
 d        1    1.00
      0.1640000000      1.0000000000
 d        1    1.00
      0.1170000000      1.0000000000
 d        1    1.00
      0.0839000000      1.0000000000
 d        1    1.00
      0.0599000000      1.0000000000
 d        1    1.00
      0.0428000000      1.0000000000
 d        1    1.00
      0.0306000000      1.0000000000
 d        1    1.00
      0.0218000000      1.0000000000
 d        1    1.00
      0.0156000000      1.0000000000
 d        1    1.00
      0.0111000000      1.0000000000
 d        1    1.00
      0.0079000000      1.0000000000
 d        1    1.00
      0.0057000000      1.0000000000
 d        1    1.00
      0.0040000000      1.0000000000
 d        1    1.00
      0.0029000000      1.0000000000

[MO]
Sym=     1A   
Ene=         -9.45606
Spin= Alpha
Occup=  0.50000
    1        -0.00004
    2         0.00014
    3         0.00014
    4         0.00000
    5         0.00000
    6         0.00000
    7        -0.00001
    8         0.00000
    9         0.00000
   10         0.00017
   11        -0.00000
   12         0.00000
   13         0.00011
   14         0.00000
   15         0.00000
   16         0.00000
   17         0.00000
   18         0.00000
   19        -0.00003
   20         0.00001
   21         0.00001
   22         0.00000
   23         0.00000
   24         0.00000
   25         0.17499
   26         0.32834
   27         0.43101
   28         0.20042
   29         0.01095
   30        -0.00306
   31         0.00065
   32         0.00000
   33         0.00000
   34         0.00000
   35         0.00000
   36         0.00000
   37         0.00000
   38         0.00000
   39         0.00000
   40         0.00000
   41         0.00000
   42         0.00000
   43         0.00000
   44         0.00000
   45         0.00000
   46         0.00000
   47         0.00000
   48         0.00000
   49         0.00000
   50         0.00000
   51        -0.00034
   52         0.00000
   53         0.00000
   54        -0.00057
   55        -0.00000
   56         0.00000
   57        -0.00005
   58         0.00000
   59         0.00000
   60        -0.00016
   61        -0.00000
   62         0.00000
   63         0.00039
   64         0.00000
   65        -0.00000
   66        -0.00014
   67        -0.00000
   68         0.00000
   69         0.00000
   70         0.00000
   71         0.00000
   72         0.00000
   73         0.00000
   74         0.00000
   75         0.00000
   76         0.00000
   77         0.00000
   78         0.00000
   79         0.00000
   80         0.00000
   81         0.00000
   82         0.00000
   83         0.00000
   84         0.00000
   85         0.00000
   86         0.00000
   87         0.00000
   88         0.00000
   89         0.00000
   90         0.00000
   91         0.00000
   92         0.00000
   93         0.00000
   94         0.00000
   95         0.00000
   96         0.00000
   97         0.00000
   98         0.00000
   99         0.00000
  100         0.00000
  101         0.00000
  102         0.00000
  103         0.00000
  104         0.00000
  105         0.00000
  106         0.00000
  107         0.00000
  108         0.00000
  109         0.00000
  110         0.00000
  111         0.00000
  112         0.00000
  113         0.00000
  114         0.00000
  115         0.00000
  116         0.00000
  117         0.00000
  118         0.00000
  119         0.00000
  120         0.00000
  121         0.00000
  122         0.00000
  123         0.00000
  124         0.00000
  125         0.00000
  126         0.00004
  127        -0.00002
  128        -0.00002
  129         0.00000
  130        -0.00000
  131        -0.00000
  132        -0.00005
  133         0.00002
  134         0.00002
  135        -0.00000
  136         0.00000
  137        -0.00000
  138         0.00000
  139         0.00000
  140         0.00000
  141         0.00000
  142         0.00000
  143         0.00000
  144         0.00000
  145         0.00000
  146         0.00000
  147         0.00000
  148         0.00000
  149         0.00000
  150         0.00000
  151         0.00000
  152         0.00000
  153         0.00000
  154         0.00000
  155         0.00000
  156         0.00000
  157         0.00000
  158         0.00000
  159         0.00000
  160         0.00000
  161         0.00000
  162         0.00000
  163         0.00000
  164         0.00000
  165         0.00000
  166         0.00000
  167         0.00000
  168         0.00000
  169         0.00000
  170         0.00000
  171         0.00000
  172         0.00000
  173         0.00000
  174         0.00000
  175         0.00000
  176         0.00000
  177         0.00000
  178         0.00000
  179         0.00000
  180         0.00000
  181         0.00000
  182         0.00000
  183         0.00000
  184         0.00000
  185         0.00000
  186         0.00000
  187         0.00000
  188         0.00000
  189         0.00000
  190         0.00000
  191         0.00000
  192         0.00000
  193         0.00000
  194         0.00000
  195         0.00000
  196         0.00000
  197         0.00000
  198         0.00000
  199         0.00000
  200         0.00000
  201         0.00000
  202         0.00000
  203         0.00000
  204         0.00000
  205         0.00000
  206         0.00000
  207         0.00000
  208         0.00000
  209         0.00000
  210         0.00000
  211         0.00000
  212         0.00000
  213         0.00000
  214         0.00000
  215         0.00000
  216         0.00000
  217         0.00000
  218         0.00000
  219         0.00000
  220         0.00000
  221         0.00000
  222         0.00000
  223         0.00000
  224         0.00000
  225         0.00000
  226         0.00000
  227         0.00000
  228         0.00000
  229         0.00000
  230         0.00000
  231         0.00000
  232         0.00000
  233         0.00000
  234         0.00000
  235         0.00000
  236         0.00000
  237         0.00000
  238         0.00000
  239         0.00000
  240         0.00000
  241         0.00000
  242         0.00000
  243         0.00000
  244         0.00000
  245         0.00000
  246         0.00000
  247         0.00000
  248         0.00000
  249         0.00000
  250         0.00000
  251         0.00000
Sym=     2A   
Ene=          0.14673
Spin= Alpha
Occup=  0.00000
    1        -0.00003
    2         0.00014
    3        -0.00144
    4        -0.00000
    5        -0.00000
    6        -0.00000
    7        -0.00016
    8        -0.00000
    9        -0.00000
   10        -0.00006
   11        -0.00000
   12         0.00000
   13        -0.00058
   14         0.00000
   15        -0.00000
   16        -0.00000
   17         0.00000
   18        -0.00000
   19        -0.00026
   20         0.00013
   21         0.00013
   22        -0.00000
   23         0.00000
   24        -0.00000
   25        -0.00000
   26         0.00001
   27        -0.00007
   28         0.00066
   29        -0.01094
   30        -0.00591
   31         0.00075
   32        -0.00601
   33         0.01625
   34        -0.00540
   35        -0.00001
   36         0.01629
   37        -0.00467
   38        -0.00949
   39         0.01494
   40         0.00095
   41        -0.01594
   42         0.01081
   43         0.00968
   44        -0.01955
   45         0.00151
   46         0.02315
   47        -0.01509
   48        -0.02135
   49         0.03743
   50        -0.01713
   51        -0.00008
   52         0.00000
   53        -0.00000
   54         0.00143
   55        -0.00000
   56         0.00000
   57         0.15146
   58        -0.00000
   59         0.00000
   60         0.10842
   61         0.00000
   62         0.00000
   63         0.18948
   64         0.00000
   65         0.00000
   66         0.31927
   67        -0.00000
   68        -0.00000
   69        -0.08272
   70         0.00000
   71        -0.00000
   72        -0.04968
   73         0.00000
   74        -0.00000
   75        -0.11598
   76         0.00000
   77        -0.00000
   78         0.15072
   79        -0.00000
   80        -0.00000
   81        -0.26036
   82         0.00000
   83        -0.00000
   84         0.01142
   85        -0.00000
   86         0.00000
   87         0.10464
   88         0.00000
   89        -0.00000
   90        -0.44433
   91        -0.00000
   92        -0.00000
   93         0.14074
   94         0.00000
   95         0.00000
   96         0.00597
   97         0.00000
   98         0.00000
   99        -0.66380
  100         0.00000
  101        -0.00000
  102         0.61730
  103        -0.00000
  104         0.00000
  105         0.22628
  106         0.00000
  107        -0.00000
  108        -1.17744
  109        -0.00000
  110         0.00000
  111         1.04531
  112        -0.00000
  113         0.00000
  114         0.64981
  115         0.00000
  116        -0.00000
  117        -2.41563
  118        -0.00000
  119         0.00000
  120         2.44456
  121         0.00000
  122        -0.00000
  123        -0.98460
  124        -0.00000
  125         0.00000
  126         0.44096
  127         0.41483
  128        -0.85578
  129         0.00000
  130         0.00000
  131        -0.00000
  132        -2.35683
  133        -2.33949
  134         4.69632
  135        -0.00000
  136        -0.00000
  137         0.00000
  138        -0.94207
  139        -0.88716
  140         1.82924
  141        -0.00000
  142        -0.00000
  143         0.00000
  144         1.52229
  145         1.44001
  146        -2.96230
  147         0.00000
  148         0.00000
  149        -0.00000
  150        -2.80467
  151        -2.67368
  152         5.47835
  153        -0.00000
  154        -0.00000
  155         0.00000
  156         4.62022
  157         4.46024
  158        -9.08046
  159         0.00000
  160         0.00000
  161        -0.00000
  162        -3.02630
  163        -2.91765
  164         5.94395
  165        -0.00000
  166         0.00000
  167         0.00000
  168         5.19227
  169         5.16559
  170       -10.35786
  171         0.00000
  172         0.00000
  173        -0.00000
  174        -4.53233
  175        -4.63642
  176         9.16875
  177         0.00000
  178        -0.00000
  179         0.00000
  180         2.06263
  181         2.28687
  182        -4.34950
  183        -0.00000
  184         0.00000
  185        -0.00000
  186         2.12674
  187         1.86476
  188        -3.99150
  189         0.00000
  190        -0.00000
  191        -0.00000
  192        -7.22007
  193        -7.06502
  194        14.28509
  195        -0.00000
  196         0.00000
  197         0.00000
  198        11.50992
  199        11.60708
  200       -23.11700
  201        -0.00000
  202        -0.00000
  203        -0.00000
  204       -12.48175
  205       -12.88145
  206        25.36320
  207         0.00000
  208         0.00000
  209         0.00000
  210         7.71737
  211         8.28465
  212       -16.00202
  213        -0.00000
  214        -0.00000
  215        -0.00000
  216         3.97368
  217         3.59078
  218        -7.56446
  219         0.00000
  220         0.00000
  221        -0.00000
  222       -20.79209
  223       -21.02317
  224        41.81526
  225         0.00000
  226         0.00000
  227         0.00000
  228        36.62581
  229        37.67949
  230       -74.30530
  231        -0.00000
  232        -0.00000
  233        -0.00000
  234       -39.13493
  235       -40.59072
  236        79.72565
  237         0.00000
  238         0.00000
  239         0.00000
  240        26.37716
  241        27.50369
  242       -53.88085
  243        -0.00000
  244        -0.00000
  245        -0.00000
  246        -9.16686
  247        -9.58743
  248        18.75429
  249         0.00000
  250         0.00000
  251         0.00000
Sym=     3A   
Ene=          0.14957
Spin= Alpha
Occup=  0.00000
    1        -0.00000
    2         0.00000
    3        -0.00000
    4        -0.00000
    5        -0.00000
    6        -0.00000
    7        -0.00000
    8        -0.00000
    9        -0.00000
   10        -0.00000
   11         0.00000
   12         0.00000
   13        -0.00000
   14        -0.00000
   15        -0.00000
   16         0.00000
   17         0.00000
   18        -0.00000
   19        -0.00000
   20         0.00000
   21         0.00000
   22         0.00000
   23         0.00000
   24         0.00002
   25        -0.00000
   26         0.00000
   27        -0.00000
   28         0.00000
   29        -0.00000
   30         0.00000
   31         0.00000
   32        -0.00000
   33         0.00000
   34         0.00000
   35         0.00000
   36        -0.00000
   37        -0.00000
   38         0.00000
   39        -0.00000
   40         0.00000
   41        -0.00000
   42        -0.00000
   43         0.00000
   44        -0.00000
   45         0.00000
   46         0.00000
   47        -0.00000
   48         0.00000
   49        -0.00000
   50         0.00000
   51         0.00000
   52        -0.00000
   53        -0.00000
   54        -0.00000
   55         0.00000
   56         0.00000
   57        -0.00000
   58         0.00000
   59         0.00000
   60        -0.00000
   61         0.00000
   62        -0.00000
   63        -0.00000
   64         0.00000
   65         0.00000
   66        -0.00000
   67         0.00000
   68        -0.00000
   69         0.00000
   70        -0.00000
   71        -0.00000
   72         0.00000
   73        -0.00000
   74        -0.00000
   75         0.00000
   76        -0.00000
   77        -0.00000
   78        -0.00000
   79        -0.00000
   80         0.00000
   81         0.00000
   82        -0.00000
   83        -0.00000
   84         0.00000
   85        -0.00000
   86         0.00000
   87        -0.00000
   88         0.00000
   89        -0.00000
   90         0.00000
   91        -0.00000
   92        -0.00000
   93        -0.00000
   94         0.00000
   95         0.00000
   96        -0.00000
   97        -0.00000
   98        -0.00000
   99         0.00000
  100        -0.00000
  101        -0.00000
  102        -0.00000
  103         0.00000
  104         0.00000
  105        -0.00000
  106         0.00000
  107        -0.00000
  108         0.00000
  109        -0.00000
  110        -0.00000
  111        -0.00000
  112         0.00000
  113         0.00000
  114        -0.00000
  115         0.00000
  116        -0.00000
  117         0.00000
  118        -0.00000
  119        -0.00000
  120        -0.00000
  121         0.00000
  122         0.00000
  123         0.00000
  124        -0.00000
  125        -0.00000
  126         0.00000
  127        -0.00000
  128         0.00000
  129        -0.00000
  130        -0.00000
  131         0.88957
  132        -0.00000
  133         0.00000
  134        -0.00000
  135         0.00000
  136         0.00000
  137        -0.84956
  138        -0.00000
  139         0.00000
  140        -0.00000
  141         0.00000
  142         0.00000
  143        -1.83893
  144         0.00000
  145        -0.00000
  146         0.00000
  147        -0.00000
  148        -0.00000
  149         2.65290
  150        -0.00000
  151         0.00000
  152        -0.00000
  153         0.00000
  154         0.00000
  155        -4.15088
  156         0.00000
  157        -0.00000
  158         0.00000
  159        -0.00000
  160        -0.00000
  161         5.21947
  162        -0.00000
  163         0.00000
  164        -0.00000
  165         0.00000
  166         0.00000
  167        -3.64352
  168         0.00000
  169        -0.00000
  170         0.00000
  171        -0.00000
  172        -0.00000
  173         1.65702
  174         0.00000
  175        -0.00000
  176        -0.00000
  177        -0.00000
  178        -0.00000
  179         2.55288
  180        -0.00000
  181         0.00000
  182         0.00000
  183         0.00000
  184         0.00000
  185        -7.00774
  186         0.00000
  187        -0.00000
  188        -0.00000
  189        -0.00000
  190        -0.00000
  191         9.05101
  192        -0.00000
  193         0.00000
  194         0.00000
  195         0.00000
  196         0.00000
  197        -6.26439
  198        -0.00000
  199         0.00000
  200        -0.00000
  201         0.00000
  202         0.00000
  203        -1.85955
  204         0.00000
  205        -0.00000
  206         0.00000
  207        -0.00000
  208        -0.00000
  209        12.58913
  210        -0.00000
  211         0.00000
  212        -0.00000
  213         0.00000
  214         0.00000
  215       -19.66789
  216         0.00000
  217        -0.00000
  218         0.00000
  219        -0.00000
  220        -0.00000
  221        14.92026
  222         0.00000
  223        -0.00000
  224        -0.00000
  225        -0.00000
  226        -0.00000
  227         5.69744
  228        -0.00000
  229         0.00000
  230         0.00000
  231         0.00000
  232         0.00000
  233       -35.56704
  234         0.00000
  235        -0.00000
  236        -0.00000
  237        -0.00000
  238        -0.00000
  239        51.97583
  240        -0.00000
  241         0.00000
  242         0.00000
  243         0.00000
  244         0.00000
  245       -41.69752
  246         0.00000
  247        -0.00000
  248        -0.00000
  249        -0.00000
  250        -0.00000
  251        15.94356
Sym=     4A   
Ene=          0.14960
Spin= Alpha
Occup=  0.00000
    1        -0.00000
    2         0.00000
    3         0.00000
    4         0.00000
    5         0.00000
    6         0.00000
    7         0.00000
    8         0.00000
    9        -0.00000
   10         0.00000
   11        -0.00009
   12         0.00000
   13        -0.00000
   14         0.00018
   15        -0.00000
   16        -0.00000
   17        -0.00000
   18        -0.00000
   19         0.00000
   20        -0.00000
   21        -0.00000
   22        -0.00006
   23         0.00000
   24         0.00000
   25         0.00000
   26        -0.00000
   27         0.00000
   28        -0.00000
   29        -0.00000
   30         0.00000
   31         0.00000
   32         0.00000
   33        -0.00000
   34         0.00000
   35         0.00000
   36        -0.00000
   37        -0.00000
   38        -0.00000
   39        -0.00000
   40         0.00000
   41        -0.00000
   42         0.00000
   43         0.00000
   44         0.00000
   45        -0.00000
   46         0.00000
   47         0.00000
   48        -0.00000
   49         0.00000
   50        -0.00000
   51         0.00000
   52         0.00021
   53         0.00000
   54        -0.00000
   55        -0.00374
   56        -0.00000
   57        -0.00000
   58        -0.37727
   59        -0.00000
   60         0.00000
   61        -0.26727
   62         0.00000
   63        -0.00000
   64        -0.45735
   65         0.00000
   66         0.00000
   67        -0.72942
   68         0.00000
   69         0.00000
   70         0.20944
   71         0.00000
   72         0.00000
   73         0.11325
   74         0.00000
   75        -0.00000
   76         0.29973
   77        -0.00000
   78         0.00000
   79        -0.36734
   80         0.00000
   81        -0.00000
   82         0.60871
   83        -0.00000
   84         0.00000
   85         0.00045
   86         0.00000
   87         0.00000
   88        -0.25122
   89        -0.00000
   90        -0.00000
   91         1.03894
   92         0.00000
   93         0.00000
   94        -0.32841
   95        -0.00000
   96        -0.00000
   97        -0.03833
   98         0.00000
   99         0.00000
  100         1.56507
  101        -0.00000
  102         0.00000
  103        -1.44428
  104         0.00000
  105        -0.00000
  106        -0.54586
  107        -0.00000
  108         0.00000
  109         2.78991
  110         0.00000
  111        -0.00000
  112        -2.47983
  113        -0.00000
  114        -0.00000
  115        -1.54324
  116         0.00000
  117         0.00000
  118         5.76431
  119        -0.00000
  120        -0.00000
  121        -5.86006
  122        -0.00000
  123         0.00000
  124         2.36959
  125         0.00000
  126        -0.00000
  127        -0.00000
  128         0.00000
  129         0.88266
  130        -0.00000
  131         0.00000
  132         0.00000
  133         0.00000
  134        -0.00000
  135        -0.83706
  136         0.00000
  137        -0.00000
  138         0.00000
  139         0.00000
  140        -0.00000
  141        -1.82473
  142         0.00000
  143        -0.00000
  144        -0.00000
  145        -0.00000
  146         0.00000
  147         2.63209
  148        -0.00000
  149         0.00000
  150         0.00000
  151         0.00000
  152        -0.00000
  153        -4.11600
  154         0.00000
  155        -0.00000
  156        -0.00000
  157        -0.00000
  158         0.00000
  159         5.16962
  160        -0.00000
  161         0.00000
  162         0.00000
  163        -0.00000
  164         0.00000
  165        -3.60648
  166        -0.00000
  167        -0.00000
  168        -0.00000
  169        -0.00000
  170         0.00000
  171         1.63128
  172         0.00000
  173         0.00000
  174         0.00000
  175         0.00000
  176        -0.00000
  177         2.53441
  178        -0.00000
  179         0.00000
  180        -0.00000
  181        -0.00000
  182         0.00000
  183        -6.93617
  184         0.00000
  185        -0.00000
  186         0.00000
  187         0.00000
  188        -0.00000
  189         8.95213
  190        -0.00000
  191         0.00000
  192         0.00000
  193        -0.00000
  194         0.00000
  195        -6.19438
  196         0.00000
  197        -0.00000
  198        -0.00000
  199        -0.00000
  200         0.00000
  201        -1.83934
  202        -0.00000
  203        -0.00000
  204         0.00000
  205         0.00000
  206        -0.00000
  207        12.45261
  208         0.00000
  209         0.00000
  210        -0.00000
  211        -0.00000
  212         0.00000
  213       -19.46297
  214         0.00000
  215        -0.00000
  216         0.00000
  217         0.00000
  218        -0.00000
  219        14.77922
  220        -0.00000
  221         0.00000
  222        -0.00000
  223        -0.00000
  224         0.00000
  225         5.61892
  226         0.00000
  227         0.00000
  228        -0.00000
  229         0.00000
  230         0.00000
  231       -35.20528
  232        -0.00000
  233        -0.00000
  234         0.00000
  235         0.00000
  236        -0.00000
  237        51.49003
  238         0.00000
  239         0.00000
  240        -0.00000
  241        -0.00000
  242         0.00000
  243       -41.33622
  244        -0.00000
  245        -0.00000
  246         0.00000
  247         0.00000
  248        -0.00000
  249        15.81381
  250         0.00000
  251         0.00000
Sym=     5A   
Ene=          0.14961
Spin= Alpha
Occup=  0.00000
    1         0.00000
    2        -0.00000
    3         0.00000
    4        -0.00000
    5        -0.00000
    6        -0.00000
    7        -0.00000
    8         0.00000
    9         0.00000
   10        -0.00000
   11        -0.00000
   12        -0.00009
   13         0.00000
   14         0.00000
   15         0.00018
   16        -0.00000
   17        -0.00000
   18        -0.00000
   19        -0.00000
   20         0.00000
   21         0.00000
   22        -0.00000
   23        -0.00006
   24         0.00000
   25        -0.00000
   26         0.00000
   27        -0.00000
   28         0.00000
   29        -0.00000
   30        -0.00000
   31        -0.00000
   32        -0.00000
   33         0.00000
   34        -0.00000
   35        -0.00000
   36         0.00000
   37        -0.00000
   38         0.00000
   39         0.00000
   40        -0.00000
   41         0.00000
   42         0.00000
   43        -0.00000
   44         0.00000
   45         0.00000
   46        -0.00000
   47        -0.00000
   48         0.00000
   49        -0.00000
   50         0.00000
   51         0.00000
   52         0.00000
   53         0.00021
   54        -0.00000
   55        -0.00000
   56        -0.00374
   57        -0.00000
   58        -0.00000
   59        -0.37727
   60        -0.00000
   61        -0.00000
   62        -0.26727
   63         0.00000
   64         0.00000
   65        -0.45735
   66         0.00000
   67         0.00000
   68        -0.72942
   69         0.00000
   70         0.00000
   71         0.20944
   72         0.00000
   73         0.00000
   74         0.11325
   75        -0.00000
   76        -0.00000
   77         0.29973
   78         0.00000
   79         0.00000
   80        -0.36734
   81         0.00000
   82         0.00000
   83         0.60871
   84        -0.00000
   85        -0.00000
   86         0.00045
   87        -0.00000
   88         0.00000
   89        -0.25122
   90         0.00000
   91        -0.00000
   92         1.03894
   93        -0.00000
   94        -0.00000
   95        -0.32841
   96         0.00000
   97         0.00000
   98        -0.03833
   99         0.00000
  100        -0.00000
  101         1.56507
  102        -0.00000
  103         0.00000
  104        -1.44428
  105         0.00000
  106        -0.00000
  107        -0.54586
  108        -0.00000
  109         0.00000
  110         2.78991
  111        -0.00000
  112        -0.00000
  113        -2.47983